
     Program PWSCF v.6.5 starts on  7Jul2021 at 19:18:40 

     This program is part of the open-source Quantum ESPRESSO suite
     for quantum simulation of materials; please cite
         "P. Giannozzi et al., J. Phys.:Condens. Matter 21 395502 (2009);
         "P. Giannozzi et al., J. Phys.:Condens. Matter 29 465901 (2017);
          URL http://www.quantum-espresso.org", 
     in publications or presentations arising from this work. More details at
     http://www.quantum-espresso.org/quote

     Parallel version (MPI), running on    64 processors

     MPI processes distributed on     1 nodes
     R & G space division:  proc/nbgrp/npool/nimage =      64
     Waiting for input...
     Reading input from standard input

     Current dimensions of program PWSCF are:
     Max number of different atomic species (ntypx) = 10
     Max number of k-points (npk) =  40000
     Max angular momentum in pseudopotentials (lmaxx) =  3
               file C.pbe-rrkjus.UPF: wavefunction(s)  2S 2P renormalized
               file Co.pbe-nd-rrkjus.UPF: wavefunction(s)  4S 3D renormalized
               file H.pbe-rrkjus.UPF: wavefunction(s)  1S renormalized
               file N.pbe-rrkjus.UPF: wavefunction(s)  2S renormalized
               file O.pbe-rrkjus.UPF: wavefunction(s)  2S renormalized

     --------------------------------------------
     Parameters for DFT-D3 Dispersion Correction:
     --------------------------------------------
       Reference C6 values for interpolation: 

         atom   Coordination number   C6
         H          0.912             6.05
         H          0.000            15.18
         C          0.000            98.23
         C          0.987            86.49
         C          1.998            58.72
         C          2.999            51.56
         C          3.984            36.41
         N          0.000            50.54
         N          0.994            44.25
         N          2.014            39.35
         N          2.990            31.16
         O          0.000            31.01
         O          0.993            25.63
         O          1.989            20.74
         Co         0.000          1065.56
         Co         1.715           373.09
         Co         2.926           296.13
         Co         7.779           236.57

       Values used:

         atom   Coordination number  R0_AB[au]  C6      C8
         H          0.999            2.062      6.18     74.74
         H          0.997            2.062      6.18     74.75
         H          1.002            2.062      6.18     74.70
         H          1.003            2.062      6.18     74.68
         C          4.083            2.750     36.54   1056.74
         C          3.313            2.750     48.31   1397.31
         N          3.090            2.478     31.24    689.18
         C          3.175            2.750     50.31   1455.04
         O          1.104            2.345     25.44    513.43
         H          1.002            2.062      6.18     74.69
         H          0.998            2.062      6.18     74.74
         C          4.340            2.750     36.43   1053.62
         O          1.980            2.345     20.83    420.39
         C          3.140            2.750     50.61   1463.77
         H          0.999            2.062      6.18     74.73
         Co         5.097            3.243    296.13  26037.34
         N          5.203            2.478     31.16    687.49
         C          3.164            2.750     50.42   1458.16
         C          3.200            2.750     50.06   1447.88
         C          5.054            2.750     36.41   1053.14
         C          4.020            2.750     36.62   1059.02
         H          1.003            2.062      6.18     74.69
         C          3.161            2.750     50.44   1458.75
         H          0.998            2.062      6.18     74.75
         H          0.998            2.062      6.18     74.75
         H          0.998            2.062      6.18     74.74
         H          1.346            2.062      6.06     73.30
         N          5.343            2.478     31.16    687.49
         C          4.020            2.750     36.62   1059.03
         H          0.998            2.062      6.18     74.74
         O          1.984            2.345     20.83    420.33
         O          3.480            2.345     20.74    418.58
         O          1.083            2.345     25.48    514.27
         O          1.234            2.345     25.05    505.50
         H          0.998            2.062      6.18     74.74

         Molecular C6 ( Ry / a.u.^6 ) =     28557.86


     gamma-point specific algorithms are used

     Subspace diagonalization in iterative solution of the eigenvalue problem:
     a serial algorithm will be used


     Parallelization info
     --------------------
     sticks:   dense  smooth     PW     G-vecs:    dense   smooth      PW
     Min         190      76     18                15978     4044     498
     Max         192      78     20                16000     4055     516
     Sum       12281    4905   1225              1023517   258999   32423



     bravais-lattice index     =           14
     lattice parameter (alat)  =      22.6767  a.u.
     unit-cell volume          =   11661.1195 (a.u.)^3
     number of atoms/cell      =           35
     number of atomic types    =            5
     number of electrons       =       118.00
     number of Kohn-Sham states=           71
     kinetic-energy cutoff     =      30.0000  Ry
     charge density cutoff     =     300.0000  Ry
     convergence threshold     =      1.0E-06
     mixing beta               =       0.4000
     number of iterations used =            8  local-TF  mixing
     Exchange-correlation=  SLA  PW   PBE  PBE
                           (   1   4   3   4   0   0   0)
     nstep                     =          600


     celldm(1)=  22.676712  celldm(2)=   1.000000  celldm(3)=   1.000000
     celldm(4)=   0.000000  celldm(5)=   0.000000  celldm(6)=   0.000000

     crystal axes: (cart. coord. in units of alat)
               a(1) = (   1.000000   0.000000   0.000000 )  
               a(2) = (   0.000000   1.000000   0.000000 )  
               a(3) = (   0.000000   0.000000   1.000000 )  

     reciprocal axes: (cart. coord. in units 2 pi/alat)
               b(1) = (  1.000000 -0.000000 -0.000000 )  
               b(2) = (  0.000000  1.000000 -0.000000 )  
               b(3) = (  0.000000  0.000000  1.000000 )  


     PseudoPot. # 1 for C  read from file:
     /public1/home/sc50649/pseudo/C.pbe-rrkjus.UPF
     MD5 check sum: 00fb224312de0c5b6853bd333518df6f
     Pseudo is Ultrasoft, Zval =  4.0
     Generated by new atomic code, or converted to UPF format
     Using radial grid of  627 points,  4 beta functions with: 
                l(1) =   0
                l(2) =   0
                l(3) =   1
                l(4) =   1
     Q(r) pseudized with 0 coefficients 


     PseudoPot. # 2 for Co read from file:
     /public1/home/sc50649/pseudo/Co.pbe-nd-rrkjus.UPF
     MD5 check sum: 3e47a84addf5e975e0edeaeee2a73f59
     Pseudo is Ultrasoft + core correction, Zval =  9.0
     Generated by new atomic code, or converted to UPF format
     Using radial grid of  961 points,  6 beta functions with: 
                l(1) =   0
                l(2) =   0
                l(3) =   1
                l(4) =   1
                l(5) =   2
                l(6) =   2
     Q(r) pseudized with 0 coefficients 


     PseudoPot. # 3 for H  read from file:
     /public1/home/sc50649/pseudo/H.pbe-rrkjus.UPF
     MD5 check sum: 7cc9d459525c9a0585f487a71c3c9563
     Pseudo is Ultrasoft, Zval =  1.0
     Generated by new atomic code, or converted to UPF format
     Using radial grid of 1061 points,  2 beta functions with: 
                l(1) =   0
                l(2) =   0
     Q(r) pseudized with 0 coefficients 


     PseudoPot. # 4 for N  read from file:
     /public1/home/sc50649/pseudo/N.pbe-rrkjus.UPF
     MD5 check sum: 0c3fbe5807a93f9ba59d5a7019aa238b
     Pseudo is Ultrasoft, Zval =  5.0
     Generated by new atomic code, or converted to UPF format
     Using radial grid of 1257 points,  4 beta functions with: 
                l(1) =   0
                l(2) =   0
                l(3) =   1
                l(4) =   1
     Q(r) pseudized with 0 coefficients 


     PseudoPot. # 5 for O  read from file:
     /public1/home/sc50649/pseudo/O.pbe-rrkjus.UPF
     MD5 check sum: 390ba29e75625707450f3bd3f0eb6be9
     Pseudo is Ultrasoft, Zval =  6.0
     Generated by new atomic code, or converted to UPF format
     Using radial grid of 1269 points,  4 beta functions with: 
                l(1) =   0
                l(2) =   0
                l(3) =   1
                l(4) =   1
     Q(r) pseudized with 0 coefficients 


     atomic species   valence    mass     pseudopotential
        C              4.00    12.01000     C ( 1.00)
        Co             9.00    58.93300     Co( 1.00)
        H              1.00     1.00794     H ( 1.00)
        N              5.00    14.00670     N ( 1.00)
        O              6.00    15.99940     O ( 1.00)

     Starting magnetic structure 
     atomic species   magnetization
        C            0.500
        Co           0.500
        H            0.500
        N            0.500
        O            0.500

     No symmetry found



   Cartesian axes

     site n.     atom                  positions (alat units)
         1           H   tau(   1) = (   0.2017100   0.4239100   0.3836100  )
         2           H   tau(   2) = (   0.1114600   0.5409700   0.4102300  )
         3           H   tau(   3) = (   0.2010600   0.7073300   0.4271000  )
         4           H   tau(   4) = (   0.3344000   0.8848400   0.4315000  )
         5           C   tau(   5) = (   0.1792400   0.4891700   0.4434200  )
         6           C   tau(   6) = (   0.2744400   0.6633300   0.4583000  )
         7           N   tau(   7) = (   0.2775200   0.5551700   0.4689900  )
         8           C   tau(   8) = (   0.3973500   0.8327100   0.4708500  )
         9           O   tau(   9) = (   0.6078600   0.4450200   0.4716400  )
        10           H   tau(  10) = (   0.5225800   0.9612000   0.4815900  )
        11           H   tau(  11) = (   0.3342100   0.1480500   0.4887600  )
        12           C   tau(  12) = (   0.3740600   0.7206700   0.4908100  )
        13           O   tau(  13) = (   0.3764200   0.3489400   0.4994300  )
        14           C   tau(  14) = (   0.5012500   0.8748100   0.4996300  )
        15           H   tau(  15) = (   0.1518500   0.4477200   0.5202700  )
        16           Co  tau(  16) = (   0.4063400   0.4983700   0.5371300  )
        17           N   tau(  17) = (   0.4495000   0.6510800   0.5413000  )
        18           C   tau(  18) = (   0.5778700   0.8036800   0.5506800  )
        19           C   tau(  19) = (   0.6010000   0.4148700   0.5709700  )
        20           C   tau(  20) = (   0.5490800   0.6933000   0.5712200  )
        21           C   tau(  21) = (   0.3122100   0.1769000   0.5725900  )
        22           H   tau(  22) = (   0.6602400   0.8331800   0.5746700  )
        23           C   tau(  23) = (   0.3187100   0.3026600   0.5790200  )
        24           H   tau(  24) = (   0.7642400   0.3388600   0.5869700  )
        25           H   tau(  25) = (   0.2293400   0.1468500   0.5965600  )
        26           H   tau(  26) = (   0.6476300   0.2504800   0.6105400  )
        27           H   tau(  27) = (   0.6057200   0.6355700   0.6119200  )
        28           N   tau(  28) = (   0.4113800   0.6710600   0.6162500  )
        29           C   tau(  29) = (   0.6813400   0.3345800   0.6247800  )
        30           H   tau(  30) = (   0.3731100   0.1428400   0.6320000  )
        31           O   tau(  31) = (   0.5188100   0.4470500   0.6346400  )
        32           O   tau(  32) = (   0.5029100   0.6449700   0.6503100  )
        33           O   tau(  33) = (   0.2744800   0.3577600   0.6551100  )
        34           O   tau(  34) = (   0.3190700   0.6727300   0.6574400  )
        35           H   tau(  35) = (   0.6853500   0.3478800   0.7150300  )

     number of k points=     1  Methfessel-Paxton smearing, width (Ry)=  0.0100
                       cart. coord. in units 2pi/alat
        k(    1) = (   0.0000000   0.0000000   0.0000000), wk =   1.0000000

     Dense  grid:   511759 G-vectors     FFT dimensions: ( 125, 125, 125)

     Smooth grid:   129500 G-vectors     FFT dimensions: (  80,  80,  80)

     Estimated max dynamical RAM per process >      72.36 MB

     Estimated total dynamical RAM >       4.52 GB
     Generating pointlists ...
     new r_m :   0.0373 (alat units)  0.8469 (a.u.) for type    1
     new r_m :   0.0645 (alat units)  1.4631 (a.u.) for type    2
     new r_m :   0.0373 (alat units)  0.8469 (a.u.) for type    3
     new r_m :   0.0357 (alat units)  0.8085 (a.u.) for type    4
     new r_m :   0.0417 (alat units)  0.9456 (a.u.) for type    5

     Check: negative core charge=   -0.000007

     Initial potential from superposition of free atoms

     starting charge  116.65201, renormalised to  118.00000
     Starting wfcs are  100 randomized atomic wfcs

     total cpu time spent up to now is        6.4 secs

     Self-consistent Calculation

     iteration #  1     ecut=    30.00 Ry     beta= 0.40
     Davidson diagonalization with overlap
     ethr =  1.00E-02,  avg # of iterations =  5.0

     total cpu time spent up to now is        7.4 secs

     total energy              =    -459.62213788 Ry
     Harris-Foulkes estimate   =    -468.17189472 Ry
     estimated scf accuracy    <      56.33938799 Ry

     total magnetization       =     8.07 Bohr mag/cell
     absolute magnetization    =     9.26 Bohr mag/cell

     iteration #  2     ecut=    30.00 Ry     beta= 0.40
     Davidson diagonalization with overlap
     ethr =  1.00E-02,  avg # of iterations =  3.0

     total cpu time spent up to now is        7.9 secs

     total energy              =    -465.36169034 Ry
     Harris-Foulkes estimate   =    -467.40110293 Ry
     estimated scf accuracy    <      15.62808039 Ry

     total magnetization       =     4.00 Bohr mag/cell
     absolute magnetization    =     5.44 Bohr mag/cell

     iteration #  3     ecut=    30.00 Ry     beta= 0.40
     Davidson diagonalization with overlap
     ethr =  1.00E-02,  avg # of iterations =  1.0

     total cpu time spent up to now is        8.2 secs

     total energy              =    -464.91477405 Ry
     Harris-Foulkes estimate   =    -465.77309124 Ry
     estimated scf accuracy    <       5.25120265 Ry

     total magnetization       =     3.36 Bohr mag/cell
     absolute magnetization    =     4.54 Bohr mag/cell

     iteration #  4     ecut=    30.00 Ry     beta= 0.40
     Davidson diagonalization with overlap
     ethr =  4.45E-03,  avg # of iterations =  3.0

     total cpu time spent up to now is        8.6 secs

     total energy              =    -464.86840816 Ry
     Harris-Foulkes estimate   =    -466.34007191 Ry
     estimated scf accuracy    <      14.79840169 Ry

     total magnetization       =     3.93 Bohr mag/cell
     absolute magnetization    =     4.56 Bohr mag/cell

     iteration #  5     ecut=    30.00 Ry     beta= 0.40
     Davidson diagonalization with overlap
     ethr =  4.45E-03,  avg # of iterations =  2.0

     total cpu time spent up to now is        9.0 secs

     total energy              =    -465.42261578 Ry
     Harris-Foulkes estimate   =    -465.57189210 Ry
     estimated scf accuracy    <       0.86814783 Ry

     total magnetization       =     2.02 Bohr mag/cell
     absolute magnetization    =     2.72 Bohr mag/cell

     iteration #  6     ecut=    30.00 Ry     beta= 0.40
     Davidson diagonalization with overlap
     ethr =  7.36E-04,  avg # of iterations =  4.0

     total cpu time spent up to now is        9.4 secs

     total energy              =    -465.39405331 Ry
     Harris-Foulkes estimate   =    -465.47307595 Ry
     estimated scf accuracy    <       0.80821826 Ry

     total magnetization       =     1.98 Bohr mag/cell
     absolute magnetization    =     2.35 Bohr mag/cell

     iteration #  7     ecut=    30.00 Ry     beta= 0.40
     Davidson diagonalization with overlap
     ethr =  6.85E-04,  avg # of iterations =  1.0

     total cpu time spent up to now is        9.7 secs

     total energy              =    -465.33393037 Ry
     Harris-Foulkes estimate   =    -465.40779185 Ry
     estimated scf accuracy    <       0.46783369 Ry

     total magnetization       =     2.00 Bohr mag/cell
     absolute magnetization    =     2.24 Bohr mag/cell

     iteration #  8     ecut=    30.00 Ry     beta= 0.40
     Davidson diagonalization with overlap
     ethr =  3.96E-04,  avg # of iterations =  3.5

     total cpu time spent up to now is       10.1 secs

     total energy              =    -465.31250355 Ry
     Harris-Foulkes estimate   =    -465.34749905 Ry
     estimated scf accuracy    <       0.22215301 Ry

     total magnetization       =     2.00 Bohr mag/cell
     absolute magnetization    =     2.18 Bohr mag/cell

     iteration #  9     ecut=    30.00 Ry     beta= 0.40
     Davidson diagonalization with overlap
     ethr =  1.88E-04,  avg # of iterations =  4.0

     total cpu time spent up to now is       10.5 secs

     total energy              =    -465.29085117 Ry
     Harris-Foulkes estimate   =    -465.31804674 Ry
     estimated scf accuracy    <       0.14498920 Ry

     total magnetization       =     1.98 Bohr mag/cell
     absolute magnetization    =     2.21 Bohr mag/cell

     iteration # 10     ecut=    30.00 Ry     beta= 0.40
     Davidson diagonalization with overlap
     ethr =  1.23E-04,  avg # of iterations =  3.0

     total cpu time spent up to now is       10.9 secs

     total energy              =    -465.27951421 Ry
     Harris-Foulkes estimate   =    -465.29614615 Ry
     estimated scf accuracy    <       0.06078541 Ry

     total magnetization       =     1.92 Bohr mag/cell
     absolute magnetization    =     2.23 Bohr mag/cell

     iteration # 11     ecut=    30.00 Ry     beta= 0.40
     Davidson diagonalization with overlap
     ethr =  5.15E-05,  avg # of iterations = 11.0

     total cpu time spent up to now is       11.4 secs

     total energy              =    -465.27567779 Ry
     Harris-Foulkes estimate   =    -465.28444756 Ry
     estimated scf accuracy    <       0.07432749 Ry

     total magnetization       =     1.93 Bohr mag/cell
     absolute magnetization    =     2.37 Bohr mag/cell

     iteration # 12     ecut=    30.00 Ry     beta= 0.40
     Davidson diagonalization with overlap
     ethr =  5.15E-05,  avg # of iterations =  1.0

     total cpu time spent up to now is       11.7 secs

     total energy              =    -465.27261266 Ry
     Harris-Foulkes estimate   =    -465.27762557 Ry
     estimated scf accuracy    <       0.02414744 Ry

     total magnetization       =     1.96 Bohr mag/cell
     absolute magnetization    =     2.34 Bohr mag/cell

     iteration # 13     ecut=    30.00 Ry     beta= 0.40
     Davidson diagonalization with overlap
     ethr =  2.05E-05,  avg # of iterations =  4.0

     total cpu time spent up to now is       12.1 secs

     total energy              =    -465.26890213 Ry
     Harris-Foulkes estimate   =    -465.27302145 Ry
     estimated scf accuracy    <       0.01378404 Ry

     total magnetization       =     1.96 Bohr mag/cell
     absolute magnetization    =     2.36 Bohr mag/cell

     iteration # 14     ecut=    30.00 Ry     beta= 0.40
     Davidson diagonalization with overlap
     ethr =  1.17E-05,  avg # of iterations =  5.0

     total cpu time spent up to now is       12.5 secs

     total energy              =    -465.26782070 Ry
     Harris-Foulkes estimate   =    -465.26958286 Ry
     estimated scf accuracy    <       0.00533815 Ry

     total magnetization       =     1.99 Bohr mag/cell
     absolute magnetization    =     2.37 Bohr mag/cell

     iteration # 15     ecut=    30.00 Ry     beta= 0.40
     Davidson diagonalization with overlap
     ethr =  4.52E-06,  avg # of iterations = 10.0

     total cpu time spent up to now is       13.0 secs

     total energy              =    -465.26808609 Ry
     Harris-Foulkes estimate   =    -465.26802574 Ry
     estimated scf accuracy    <       0.00243381 Ry

     total magnetization       =     1.98 Bohr mag/cell
     absolute magnetization    =     2.36 Bohr mag/cell

     iteration # 16     ecut=    30.00 Ry     beta= 0.40
     Davidson diagonalization with overlap
     ethr =  2.06E-06,  avg # of iterations =  5.0

     total cpu time spent up to now is       13.4 secs

     total energy              =    -465.26827914 Ry
     Harris-Foulkes estimate   =    -465.26815618 Ry
     estimated scf accuracy    <       0.00115909 Ry

     total magnetization       =     1.97 Bohr mag/cell
     absolute magnetization    =     2.34 Bohr mag/cell

     iteration # 17     ecut=    30.00 Ry     beta= 0.40
     Davidson diagonalization with overlap
     ethr =  9.82E-07,  avg # of iterations =  8.0

     total cpu time spent up to now is       13.9 secs

     total energy              =    -465.26878302 Ry
     Harris-Foulkes estimate   =    -465.26831629 Ry
     estimated scf accuracy    <       0.00053393 Ry

     total magnetization       =     1.99 Bohr mag/cell
     absolute magnetization    =     2.34 Bohr mag/cell

     iteration # 18     ecut=    30.00 Ry     beta= 0.40
     Davidson diagonalization with overlap
     ethr =  4.52E-07,  avg # of iterations =  8.0

     total cpu time spent up to now is       14.4 secs

     total energy              =    -465.26892598 Ry
     Harris-Foulkes estimate   =    -465.26881486 Ry
     estimated scf accuracy    <       0.00026119 Ry

     total magnetization       =     1.98 Bohr mag/cell
     absolute magnetization    =     2.34 Bohr mag/cell

     iteration # 19     ecut=    30.00 Ry     beta= 0.40
     Davidson diagonalization with overlap
     ethr =  2.21E-07,  avg # of iterations =  8.0

     total cpu time spent up to now is       14.8 secs

     total energy              =    -465.26895224 Ry
     Harris-Foulkes estimate   =    -465.26886661 Ry
     estimated scf accuracy    <       0.00013489 Ry

     total magnetization       =     1.95 Bohr mag/cell
     absolute magnetization    =     2.34 Bohr mag/cell

     iteration # 20     ecut=    30.00 Ry     beta= 0.40
     Davidson diagonalization with overlap
     ethr =  1.14E-07,  avg # of iterations =  1.0

     total cpu time spent up to now is       15.2 secs

     total energy              =    -465.26898078 Ry
     Harris-Foulkes estimate   =    -465.26895549 Ry
     estimated scf accuracy    <       0.00007339 Ry

     total magnetization       =     1.95 Bohr mag/cell
     absolute magnetization    =     2.34 Bohr mag/cell

     iteration # 21     ecut=    30.00 Ry     beta= 0.40
     Davidson diagonalization with overlap
     ethr =  6.22E-08,  avg # of iterations =  4.0

     total cpu time spent up to now is       15.6 secs

     total energy              =    -465.26900354 Ry
     Harris-Foulkes estimate   =    -465.26898601 Ry
     estimated scf accuracy    <       0.00002846 Ry

     total magnetization       =     1.96 Bohr mag/cell
     absolute magnetization    =     2.35 Bohr mag/cell

     iteration # 22     ecut=    30.00 Ry     beta= 0.40
     Davidson diagonalization with overlap
     ethr =  2.41E-08,  avg # of iterations =  1.0

     total cpu time spent up to now is       15.9 secs

     total energy              =    -465.26901540 Ry
     Harris-Foulkes estimate   =    -465.26900432 Ry
     estimated scf accuracy    <       0.00001812 Ry

     total magnetization       =     1.96 Bohr mag/cell
     absolute magnetization    =     2.35 Bohr mag/cell

     iteration # 23     ecut=    30.00 Ry     beta= 0.40
     Davidson diagonalization with overlap
     ethr =  1.54E-08,  avg # of iterations =  3.0

     total cpu time spent up to now is       16.3 secs

     total energy              =    -465.26902270 Ry
     Harris-Foulkes estimate   =    -465.26901648 Ry
     estimated scf accuracy    <       0.00000839 Ry

     total magnetization       =     1.96 Bohr mag/cell
     absolute magnetization    =     2.35 Bohr mag/cell

     iteration # 24     ecut=    30.00 Ry     beta= 0.40
     Davidson diagonalization with overlap
     ethr =  7.11E-09,  avg # of iterations =  1.0

     total cpu time spent up to now is       16.6 secs

     total energy              =    -465.26902638 Ry
     Harris-Foulkes estimate   =    -465.26902307 Ry
     estimated scf accuracy    <       0.00000545 Ry

     total magnetization       =     1.96 Bohr mag/cell
     absolute magnetization    =     2.35 Bohr mag/cell

     iteration # 25     ecut=    30.00 Ry     beta= 0.40
     Davidson diagonalization with overlap
     ethr =  4.62E-09,  avg # of iterations =  1.0

     total cpu time spent up to now is       17.0 secs

     total energy              =    -465.26903059 Ry
     Harris-Foulkes estimate   =    -465.26902650 Ry
     estimated scf accuracy    <       0.00000338 Ry

     total magnetization       =     1.96 Bohr mag/cell
     absolute magnetization    =     2.35 Bohr mag/cell

     iteration # 26     ecut=    30.00 Ry     beta= 0.40
     Davidson diagonalization with overlap
     ethr =  2.86E-09,  avg # of iterations =  2.0

     total cpu time spent up to now is       17.4 secs

     total energy              =    -465.26903111 Ry
     Harris-Foulkes estimate   =    -465.26903078 Ry
     estimated scf accuracy    <       0.00000120 Ry

     total magnetization       =     1.96 Bohr mag/cell
     absolute magnetization    =     2.35 Bohr mag/cell

     iteration # 27     ecut=    30.00 Ry     beta= 0.40
     Davidson diagonalization with overlap
     ethr =  1.02E-09,  avg # of iterations =  1.0

     Magnetic moment per site:
     atom:    1    charge:    0.4866    magn:    0.0004    constr:    0.0000
     atom:    2    charge:    0.4909    magn:   -0.0003    constr:    0.0000
     atom:    3    charge:    0.4861    magn:    0.0004    constr:    0.0000
     atom:    4    charge:    0.4871    magn:    0.0001    constr:    0.0000
     atom:    5    charge:    0.8376    magn:   -0.0003    constr:    0.0000
     atom:    6    charge:    0.8463    magn:   -0.0141    constr:    0.0000
     atom:    7    charge:    1.3580    magn:   -0.0018    constr:    0.0000
     atom:    8    charge:    0.8508    magn:   -0.0038    constr:    0.0000
     atom:    9    charge:    2.9779    magn:    0.0380    constr:    0.0000
     atom:   10    charge:    0.4883    magn:   -0.0003    constr:    0.0000
     atom:   11    charge:    0.4886    magn:    0.0005    constr:    0.0000
     atom:   12    charge:    0.8727    magn:    0.0048    constr:    0.0000
     atom:   13    charge:    2.9810    magn:    0.0279    constr:    0.0000
     atom:   14    charge:    0.8437    magn:    0.0077    constr:    0.0000
     atom:   15    charge:    0.4829    magn:    0.0002    constr:    0.0000
     atom:   16    charge:    6.2985    magn:    1.1767    constr:    0.0000
     atom:   17    charge:    1.5563    magn:    0.0020    constr:    0.0000
     atom:   18    charge:    0.8553    magn:   -0.0100    constr:    0.0000
     atom:   19    charge:    0.8173    magn:   -0.0003    constr:    0.0000
     atom:   20    charge:    0.9131    magn:    0.0031    constr:    0.0000
     atom:   21    charge:    0.8452    magn:    0.0013    constr:    0.0000
     atom:   22    charge:    0.4858    magn:    0.0004    constr:    0.0000
     atom:   23    charge:    0.8180    magn:   -0.0011    constr:    0.0000
     atom:   24    charge:    0.4879    magn:    0.0001    constr:    0.0000
     atom:   25    charge:    0.4856    magn:    0.0002    constr:    0.0000
     atom:   26    charge:    0.4812    magn:    0.0000    constr:    0.0000
     atom:   27    charge:    0.4932    magn:   -0.0023    constr:    0.0000
     atom:   28    charge:    1.5491    magn:    0.0949    constr:    0.0000
     atom:   29    charge:    0.8461    magn:   -0.0002    constr:    0.0000
     atom:   30    charge:    0.4814    magn:    0.0000    constr:    0.0000
     atom:   31    charge:    2.9836    magn:    0.0076    constr:    0.0000
     atom:   32    charge:    3.1820    magn:    0.0215    constr:    0.0000
     atom:   33    charge:    2.9789    magn:    0.0291    constr:    0.0000
     atom:   34    charge:    2.9881    magn:    0.1030    constr:    0.0000
     atom:   35    charge:    0.4859    magn:    0.0005    constr:    0.0000

     total cpu time spent up to now is       17.7 secs

     End of self-consistent calculation

 ------ SPIN UP ------------


          k = 0.0000 0.0000 0.0000 ( 16212 PWs)   bands (ev):

   -38.9659 -29.7648 -27.1501 -25.2425 -25.0265 -23.0999 -22.6945 -22.6013
   -22.5385 -20.0838 -18.9612 -18.3504 -17.4619 -17.1543 -16.7138 -16.6750
   -15.9116 -15.0448 -13.9860 -12.7078 -12.2854 -12.2139 -11.7051 -11.6174
   -11.5067 -10.9430 -10.5692 -10.2041  -9.9234  -9.8304  -9.7778  -9.5564
    -9.5350  -9.4914  -9.3743  -9.2717  -9.0844  -8.6940  -8.5556  -8.1786
    -8.1043  -7.9664  -7.8332  -7.5563  -7.5335  -7.3312  -6.3909  -6.3201
    -6.1226  -5.9422  -5.7403  -5.5112  -5.3236  -5.0193  -4.6220  -4.4625
    -4.3612  -4.1641  -4.1131  -3.3715  -2.5887  -1.6275  -0.5167   0.0265
     0.1702   0.7004   0.9038   0.9962   1.0797   1.0989   1.1955

 ------ SPIN DOWN ----------


          k = 0.0000 0.0000 0.0000 ( 16212 PWs)   bands (ev):

   -38.8354 -29.6106 -27.0168 -25.1967 -24.9722 -23.0912 -22.6307 -22.5320
   -22.4742 -20.0291 -18.9465 -18.0606 -17.4125 -17.1612 -16.7046 -16.6642
   -15.8567 -15.0389 -13.9757 -12.6286 -12.2546 -12.0501 -11.6713 -11.5506
   -11.4856 -10.9384 -10.4927 -10.1853  -9.8878  -9.7862  -9.7309  -9.5162
    -9.4376  -9.4163  -9.3362  -9.2294  -8.9951  -8.5840  -8.4933  -8.1255
    -8.0768  -7.8992  -7.7409  -7.5297  -7.4634  -7.3052  -6.2489  -6.1726
    -5.9464  -5.8627  -5.4873  -5.2264  -4.9799  -4.6452  -4.3004  -3.7097
    -3.6256  -3.5439  -2.7075  -2.3421  -2.2061  -0.8053  -0.4905   0.0428
     0.1954   0.7115   0.9157   1.0130   1.0913   1.1003   1.2030

     the Fermi energy is    -2.8105 ev

!    total energy              =    -465.26903344 Ry
     Harris-Foulkes estimate   =    -465.26903114 Ry
     estimated scf accuracy    <       0.00000077 Ry

     The total energy is the sum of the following terms:

     one-electron contribution =   -1993.49299563 Ry
     hartree contribution      =    1020.95190968 Ry
     xc contribution           =    -139.79417678 Ry
     ewald contribution        =     647.11953951 Ry
     DFT-D3 Dispersion         =      -0.05385395 Ry
     smearing contrib. (-TS)   =       0.00054374 Ry

     total magnetization       =     1.96 Bohr mag/cell
     absolute magnetization    =     2.35 Bohr mag/cell

     convergence has been achieved in  27 iterations

     Forces acting on atoms (cartesian axes, Ry/au):

     atom    1 type  3   force =     0.00049531   -0.00031787   -0.00089141
     atom    2 type  3   force =     0.00119329    0.00066906   -0.00117994
     atom    3 type  3   force =    -0.00034104    0.00165559    0.00432841
     atom    4 type  3   force =    -0.00238030   -0.00270471    0.00254887
     atom    5 type  1   force =     0.00101013    0.00011591    0.00111962
     atom    6 type  1   force =     0.01087399    0.00357184   -0.02827685
     atom    7 type  4   force =    -0.00109021   -0.00232005   -0.02529015
     atom    8 type  1   force =    -0.03888653   -0.03985219   -0.00869241
     atom    9 type  5   force =    -0.00208988   -0.00061655   -0.00103277
     atom   10 type  3   force =     0.00272583   -0.00208915   -0.00277317
     atom   11 type  3   force =    -0.00108252   -0.00119691    0.00041808
     atom   12 type  1   force =    -0.16422819    0.18785835   -0.39362791
     atom   13 type  5   force =    -0.00177463   -0.01066217   -0.00177233
     atom   14 type  1   force =     0.05701762   -0.01166578    0.02285413
     atom   15 type  3   force =     0.00015497    0.00018855    0.00084335
     atom   16 type  2   force =    -0.01842421   -0.09851235   -0.04702259
     atom   17 type  4   force =     0.16068326   -0.28047423   -1.95306952
     atom   18 type  1   force =    -0.01982642    0.13144413   -0.00812723
     atom   19 type  1   force =     0.00278752   -0.00489558   -0.00100361
     atom   20 type  1   force =     0.41628168    0.03040468   -0.20716716
     atom   21 type  1   force =     0.00001135    0.00036209    0.00050893
     atom   22 type  3   force =    -0.00111513   -0.00573067   -0.00182767
     atom   23 type  1   force =    -0.00277252   -0.00189709    0.00244664
     atom   24 type  3   force =    -0.00024820    0.00168952   -0.00073040
     atom   25 type  3   force =     0.00077001    0.00123081    0.00094587
     atom   26 type  3   force =     0.00171668   -0.00030740    0.00068442
     atom   27 type  3   force =     0.22771149   -0.04524739   -0.14940940
     atom   28 type  4   force =    -0.86946380    0.31445562    1.33691459
     atom   29 type  1   force =    -0.00003806    0.00044976   -0.00185698
     atom   30 type  3   force =    -0.00135771   -0.00122058    0.00033583
     atom   31 type  5   force =     0.00407936   -0.01821128   -0.00436543
     atom   32 type  5   force =     0.35186295   -0.12541255    1.33378602
     atom   33 type  5   force =     0.00194987   -0.00159490   -0.00089270
     atom   34 type  5   force =    -0.11747864   -0.01956511    0.13209265
     atom   35 type  3   force =     0.00127267    0.00039862   -0.00081777

     Total force =     3.010183     Total SCF correction =     0.001132

     BFGS Geometry Optimization

     number of scf cycles    =   1
     number of bfgs steps    =   0

     energy   new            =    -465.2690334397 Ry

     new trust radius        =       0.5000000000 bohr
     new conv_thr            =       0.0000010000 Ry


ATOMIC_POSITIONS (crystal)
H             0.2017155167        0.4239064596        0.3836000716
H             0.1114732908        0.5409774519        0.4102168579
H             0.2010562015        0.7073484398        0.4271482095
H             0.3343734884        0.8848098752        0.4315283892
C             0.1792512507        0.4891712909        0.4434324702
C             0.2745611137        0.6633697828        0.4579850546
N             0.2775078573        0.5551441595        0.4687083203
C             0.3969168849        0.8322661294        0.4707531846
O             0.6078367231        0.4450131329        0.4716284971
H             0.5226103601        0.9611767313        0.4815591127
H             0.3341979430        0.1480366689        0.4887646565
C             0.3722308392        0.7227623519        0.4864258027
O             0.3764002344        0.3488212455        0.4994102600
C             0.5018850579        0.8746800674        0.4998845475
H             0.1518517260        0.4477221001        0.5202793932
Co            0.4061347926        0.4972727770        0.5366062660
N             0.4512896784        0.6479561003        0.5195468624
C             0.5776491749        0.8051440146        0.5505894796
C             0.6010310471        0.4148154734        0.5709588218
C             0.5537165133        0.6936386451        0.5689125882
C             0.3122101264        0.1769040330        0.5725956684
H             0.6602275798        0.8331161722        0.5746496436
C             0.3186791198        0.3026388703        0.5790472504
H             0.7642372355        0.3388788178        0.5869618649
H             0.2293485763        0.1468637087        0.5965705351
H             0.6476491203        0.2504765762        0.6105476230
H             0.6082562331        0.6350660381        0.6102558896
N             0.4016959788        0.6745623820        0.6311404515
C             0.6813395761        0.3345850094        0.6247593171
H             0.3730948780        0.1428264052        0.6320037404
O             0.5188554355        0.4468471642        0.6345913782
O             0.5068290221        0.6435731643        0.6651656058
O             0.2745017175        0.3577422361        0.6551000572
O             0.3177615320        0.6725120853        0.6589112377
H             0.6853641749        0.3478844398        0.7150208917



     Writing output data file ./tmp/NO2.save/
     NEW-OLD atomic charge density approx. for the potential

     Check: negative core charge=   -0.000007

     total cpu time spent up to now is       21.3 secs

     Self-consistent Calculation

     iteration #  1     ecut=    30.00 Ry     beta= 0.40
     Davidson diagonalization with overlap
     ethr =  1.00E-06,  avg # of iterations = 14.5

     total cpu time spent up to now is       22.7 secs

     total energy              =    -466.10131708 Ry
     Harris-Foulkes estimate   =    -466.17521853 Ry
     estimated scf accuracy    <       0.45312645 Ry

     total magnetization       =     1.72 Bohr mag/cell
     absolute magnetization    =     1.95 Bohr mag/cell

     iteration #  2     ecut=    30.00 Ry     beta= 0.40
     Davidson diagonalization with overlap
     ethr =  3.84E-04,  avg # of iterations =  1.0

     total cpu time spent up to now is       23.0 secs

     total energy              =    -466.12457712 Ry
     Harris-Foulkes estimate   =    -466.13652029 Ry
     estimated scf accuracy    <       0.09430670 Ry

     total magnetization       =     1.98 Bohr mag/cell
     absolute magnetization    =     2.41 Bohr mag/cell

     iteration #  3     ecut=    30.00 Ry     beta= 0.40
     Davidson diagonalization with overlap
     ethr =  7.99E-05,  avg # of iterations =  1.0

     total cpu time spent up to now is       23.3 secs

     total energy              =    -466.11751024 Ry
     Harris-Foulkes estimate   =    -466.12742033 Ry
     estimated scf accuracy    <       0.04121850 Ry

     total magnetization       =     2.06 Bohr mag/cell
     absolute magnetization    =     2.46 Bohr mag/cell

     iteration #  4     ecut=    30.00 Ry     beta= 0.40
     Davidson diagonalization with overlap
     ethr =  3.49E-05,  avg # of iterations =  5.0

     total cpu time spent up to now is       23.8 secs

     total energy              =    -466.12222297 Ry
     Harris-Foulkes estimate   =    -466.12296204 Ry
     estimated scf accuracy    <       0.00694610 Ry

     total magnetization       =     2.06 Bohr mag/cell
     absolute magnetization    =     2.47 Bohr mag/cell

     iteration #  5     ecut=    30.00 Ry     beta= 0.40
     Davidson diagonalization with overlap
     ethr =  5.89E-06,  avg # of iterations =  2.5

     total cpu time spent up to now is       24.1 secs

     total energy              =    -466.12227818 Ry
     Harris-Foulkes estimate   =    -466.12270232 Ry
     estimated scf accuracy    <       0.00277735 Ry

     total magnetization       =     2.07 Bohr mag/cell
     absolute magnetization    =     2.48 Bohr mag/cell

     iteration #  6     ecut=    30.00 Ry     beta= 0.40
     Davidson diagonalization with overlap
     ethr =  2.35E-06,  avg # of iterations =  6.0

     total cpu time spent up to now is       24.6 secs

     total energy              =    -466.12251831 Ry
     Harris-Foulkes estimate   =    -466.12257407 Ry
     estimated scf accuracy    <       0.00081515 Ry

     total magnetization       =     2.06 Bohr mag/cell
     absolute magnetization    =     2.50 Bohr mag/cell

     iteration #  7     ecut=    30.00 Ry     beta= 0.40
     Davidson diagonalization with overlap
     ethr =  6.91E-07,  avg # of iterations =  1.0

     total cpu time spent up to now is       24.9 secs

     total energy              =    -466.12246229 Ry
     Harris-Foulkes estimate   =    -466.12255006 Ry
     estimated scf accuracy    <       0.00040795 Ry

     total magnetization       =     2.06 Bohr mag/cell
     absolute magnetization    =     2.51 Bohr mag/cell

     iteration #  8     ecut=    30.00 Ry     beta= 0.40
     Davidson diagonalization with overlap
     ethr =  3.46E-07,  avg # of iterations =  2.0

     total cpu time spent up to now is       25.3 secs

     total energy              =    -466.12257919 Ry
     Harris-Foulkes estimate   =    -466.12251159 Ry
     estimated scf accuracy    <       0.00015268 Ry

     total magnetization       =     2.06 Bohr mag/cell
     absolute magnetization    =     2.52 Bohr mag/cell

     iteration #  9     ecut=    30.00 Ry     beta= 0.40
     Davidson diagonalization with overlap
     ethr =  1.29E-07,  avg # of iterations =  2.0

     total cpu time spent up to now is       25.6 secs

     total energy              =    -466.12264513 Ry
     Harris-Foulkes estimate   =    -466.12259139 Ry
     estimated scf accuracy    <       0.00007317 Ry

     total magnetization       =     2.07 Bohr mag/cell
     absolute magnetization    =     2.53 Bohr mag/cell

     iteration # 10     ecut=    30.00 Ry     beta= 0.40
     Davidson diagonalization with overlap
     ethr =  6.20E-08,  avg # of iterations =  2.0

     total cpu time spent up to now is       26.0 secs

     total energy              =    -466.12269549 Ry
     Harris-Foulkes estimate   =    -466.12264976 Ry
     estimated scf accuracy    <       0.00003550 Ry

     total magnetization       =     2.06 Bohr mag/cell
     absolute magnetization    =     2.54 Bohr mag/cell

     iteration # 11     ecut=    30.00 Ry     beta= 0.40
     Davidson diagonalization with overlap
     ethr =  3.01E-08,  avg # of iterations =  2.5

     total cpu time spent up to now is       26.4 secs

     total energy              =    -466.12271943 Ry
     Harris-Foulkes estimate   =    -466.12269741 Ry
     estimated scf accuracy    <       0.00002005 Ry

     total magnetization       =     2.06 Bohr mag/cell
     absolute magnetization    =     2.54 Bohr mag/cell

     iteration # 12     ecut=    30.00 Ry     beta= 0.40
     Davidson diagonalization with overlap
     ethr =  1.70E-08,  avg # of iterations =  2.5

     total cpu time spent up to now is       26.7 secs

     total energy              =    -466.12273063 Ry
     Harris-Foulkes estimate   =    -466.12272057 Ry
     estimated scf accuracy    <       0.00000902 Ry

     total magnetization       =     2.07 Bohr mag/cell
     absolute magnetization    =     2.54 Bohr mag/cell

     iteration # 13     ecut=    30.00 Ry     beta= 0.40
     Davidson diagonalization with overlap
     ethr =  7.64E-09,  avg # of iterations =  2.0

     total cpu time spent up to now is       27.1 secs

     total energy              =    -466.12273648 Ry
     Harris-Foulkes estimate   =    -466.12273114 Ry
     estimated scf accuracy    <       0.00000432 Ry

     total magnetization       =     2.07 Bohr mag/cell
     absolute magnetization    =     2.54 Bohr mag/cell

     iteration # 14     ecut=    30.00 Ry     beta= 0.40
     Davidson diagonalization with overlap
     ethr =  3.66E-09,  avg # of iterations =  1.0

     total cpu time spent up to now is       27.4 secs

     total energy              =    -466.12273992 Ry
     Harris-Foulkes estimate   =    -466.12273669 Ry
     estimated scf accuracy    <       0.00000233 Ry

     total magnetization       =     2.07 Bohr mag/cell
     absolute magnetization    =     2.54 Bohr mag/cell

     iteration # 15     ecut=    30.00 Ry     beta= 0.40
     Davidson diagonalization with overlap
     ethr =  1.98E-09,  avg # of iterations =  1.5

     Magnetic moment per site:
     atom:    1    charge:    0.4862    magn:    0.0006    constr:    0.0000
     atom:    2    charge:    0.4906    magn:   -0.0002    constr:    0.0000
     atom:    3    charge:    0.4872    magn:    0.0001    constr:    0.0000
     atom:    4    charge:    0.4891    magn:    0.0004    constr:    0.0000
     atom:    5    charge:    0.8378    magn:   -0.0004    constr:    0.0000
     atom:    6    charge:    0.8532    magn:   -0.0126    constr:    0.0000
     atom:    7    charge:    1.3564    magn:    0.0048    constr:    0.0000
     atom:    8    charge:    0.8581    magn:   -0.0129    constr:    0.0000
     atom:    9    charge:    2.9781    magn:    0.0366    constr:    0.0000
     atom:   10    charge:    0.4886    magn:    0.0001    constr:    0.0000
     atom:   11    charge:    0.4885    magn:    0.0005    constr:    0.0000
     atom:   12    charge:    0.8605    magn:    0.0066    constr:    0.0000
     atom:   13    charge:    2.9806    magn:    0.0076    constr:    0.0000
     atom:   14    charge:    0.8438    magn:    0.0031    constr:    0.0000
     atom:   15    charge:    0.4830    magn:    0.0012    constr:    0.0000
     atom:   16    charge:    6.2806    magn:    1.0307    constr:    0.0000
     atom:   17    charge:    1.1646    magn:    0.0214    constr:    0.0000
     atom:   18    charge:    0.8607    magn:   -0.0116    constr:    0.0000
     atom:   19    charge:    0.8179    magn:    0.0001    constr:    0.0000
     atom:   20    charge:    0.8329    magn:    0.0026    constr:    0.0000
     atom:   21    charge:    0.8452    magn:    0.0002    constr:    0.0000
     atom:   22    charge:    0.4904    magn:    0.0004    constr:    0.0000
     atom:   23    charge:    0.8184    magn:   -0.0013    constr:    0.0000
     atom:   24    charge:    0.4881    magn:    0.0002    constr:    0.0000
     atom:   25    charge:    0.4857    magn:    0.0001    constr:    0.0000
     atom:   26    charge:    0.4814    magn:    0.0000    constr:    0.0000
     atom:   27    charge:    0.5026    magn:   -0.0010    constr:    0.0000
     atom:   28    charge:    1.2265    magn:    0.1268    constr:    0.0000
     atom:   29    charge:    0.8462    magn:   -0.0002    constr:    0.0000
     atom:   30    charge:    0.4813    magn:   -0.0001    constr:    0.0000
     atom:   31    charge:    2.9821    magn:    0.0039    constr:    0.0000
     atom:   32    charge:    2.7921    magn:    0.0539    constr:    0.0000
     atom:   33    charge:    2.9791    magn:    0.0265    constr:    0.0000
     atom:   34    charge:    3.1240    magn:    0.1544    constr:    0.0000
     atom:   35    charge:    0.4857    magn:    0.0005    constr:    0.0000

     total cpu time spent up to now is       27.8 secs

     End of self-consistent calculation

 ------ SPIN UP ------------


          k = 0.0000 0.0000 0.0000 ( 16212 PWs)   bands (ev):

   -33.2689 -29.0693 -25.2162 -25.0422 -24.5747 -22.7730 -22.6583 -22.5856
   -20.2748 -18.9769 -18.3847 -17.0426 -16.7259 -16.6567 -15.7331 -15.2144
   -14.9546 -14.4727 -13.7790 -13.1037 -12.2208 -12.0308 -11.6693 -11.5870
   -11.4048 -10.9168 -10.5880 -10.2210  -9.9878  -9.9199  -9.8320  -9.6825
    -9.5751  -9.4213  -9.3547  -9.2903  -9.0493  -8.5349  -8.4249  -8.1509
    -8.1262  -8.0591  -7.9186  -7.8161  -7.4485  -7.3040  -6.8732  -6.5401
    -6.1467  -5.9808  -5.6881  -5.4854  -5.2795  -5.0433  -4.4534  -4.3580
    -4.2100  -4.0681  -4.0498  -2.8825  -2.5947  -1.8534  -0.4945   0.0275
     0.2199   0.6989   0.8087   0.9197   1.0490   1.1038   1.1317

 ------ SPIN DOWN ----------


          k = 0.0000 0.0000 0.0000 ( 16212 PWs)   bands (ev):

   -32.9347 -28.8931 -25.1831 -25.0060 -24.4808 -22.7371 -22.6152 -22.5355
   -20.2578 -18.9379 -18.2742 -17.0354 -16.7209 -16.6517 -15.6010 -15.1297
   -14.6964 -14.2306 -13.5060 -12.7892 -12.0469 -11.9940 -11.6499 -11.5405
   -11.3645 -10.8949 -10.4197 -10.1681  -9.9456  -9.8544  -9.7675  -9.6410
    -9.5531  -9.3726  -9.3238  -9.2692  -9.0338  -8.4419  -8.3931  -8.1058
    -8.0984  -8.0489  -7.8592  -7.7378  -7.3615  -7.2878  -6.7614  -6.3801
    -6.0042  -5.8845  -5.4983  -5.1841  -4.9441  -4.6418  -4.3112  -3.6543
    -3.6218  -3.3807  -2.5211  -2.3533  -1.5384  -1.1563  -0.4838   0.0635
     0.3353   0.7292   0.9036   0.9425   1.0968   1.1187   1.1521

     the Fermi energy is    -2.7110 ev

!    total energy              =    -466.12274324 Ry
     Harris-Foulkes estimate   =    -466.12274003 Ry
     estimated scf accuracy    <       0.00000098 Ry

     The total energy is the sum of the following terms:

     one-electron contribution =   -1941.05040411 Ry
     hartree contribution      =     995.65720166 Ry
     xc contribution           =    -138.96749829 Ry
     ewald contribution        =     618.29054734 Ry
     DFT-D3 Dispersion         =      -0.05413007 Ry
     smearing contrib. (-TS)   =       0.00154023 Ry

     total magnetization       =     2.07 Bohr mag/cell
     absolute magnetization    =     2.54 Bohr mag/cell

     convergence has been achieved in  15 iterations

     Forces acting on atoms (cartesian axes, Ry/au):

     atom    1 type  3   force =     0.00072314   -0.00024679   -0.00091017
     atom    2 type  3   force =     0.00120183    0.00031699   -0.00124115
     atom    3 type  3   force =    -0.00353940   -0.00182722    0.00483231
     atom    4 type  3   force =    -0.00336067    0.00464726    0.00723914
     atom    5 type  1   force =    -0.00105107    0.00074856    0.00129563
     atom    6 type  1   force =    -0.02347026    0.02414632   -0.04044439
     atom    7 type  4   force =     0.00539704   -0.01657400   -0.00184444
     atom    8 type  1   force =    -0.04019225    0.02040356   -0.02117104
     atom    9 type  5   force =    -0.00155734   -0.00311513   -0.00221580
     atom   10 type  3   force =     0.00071305   -0.00100225    0.00067145
     atom   11 type  3   force =    -0.00106559   -0.00116852    0.00058184
     atom   12 type  1   force =    -0.03056985    0.06161372   -0.25592726
     atom   13 type  5   force =    -0.00444918   -0.00639603    0.00927152
     atom   14 type  1   force =     0.03475108   -0.01166968    0.01549571
     atom   15 type  3   force =     0.00026161   -0.00011188    0.00049200
     atom   16 type  2   force =    -0.00751917   -0.05830553   -0.07107295
     atom   17 type  4   force =    -0.00249403   -0.01779188   -0.12840369
     atom   18 type  1   force =     0.01425283    0.11040899   -0.01164092
     atom   19 type  1   force =     0.00126762   -0.00414350   -0.00044058
     atom   20 type  1   force =     0.01826687   -0.12155761    0.00007402
     atom   21 type  1   force =    -0.00055185    0.00014059    0.00034100
     atom   22 type  3   force =     0.00184283    0.00655316   -0.00074422
     atom   23 type  1   force =    -0.00380650   -0.00647479    0.00312568
     atom   24 type  3   force =     0.00006282    0.00165459   -0.00072013
     atom   25 type  3   force =     0.00058297    0.00096440    0.00087513
     atom   26 type  3   force =     0.00166756   -0.00032593    0.00053656
     atom   27 type  3   force =     0.17405527   -0.03561432   -0.12708172
     atom   28 type  4   force =     0.61950579    0.12537624   -0.10307693
     atom   29 type  1   force =     0.00117721    0.00033725   -0.00086392
     atom   30 type  3   force =    -0.00113270   -0.00116298    0.00029212
     atom   31 type  5   force =    -0.00012579   -0.02473381   -0.01149348
     atom   32 type  5   force =     0.00512904    0.04397014    0.38453826
     atom   33 type  5   force =     0.00162185   -0.00129314   -0.00023206
     atom   34 type  5   force =    -0.75895135   -0.08811181    0.35074576
     atom   35 type  3   force =     0.00135660    0.00034505   -0.00088329

     Total force =     1.202494     Total SCF correction =     0.000798

     number of scf cycles    =   2
     number of bfgs steps    =   1

     energy   old            =    -465.2690334397 Ry
     energy   new            =    -466.1227432385 Ry

     CASE: energy  _new < energy  _old

     new trust radius        =       0.8000000000 bohr
     new conv_thr            =       0.0000010000 Ry


ATOMIC_POSITIONS (crystal)
H             0.2017476963        0.4238947073        0.3835581822
H             0.1115286874        0.5409938964        0.4101599201
H             0.2009094773        0.7072821707        0.4273685175
H             0.3342235328        0.8849862130        0.4318380637
C             0.1792134298        0.4892025487        0.4434913271
C             0.2736561321        0.6643772000        0.4561823044
N             0.2777232573        0.5544533510        0.4685019213
C             0.3950695638        0.8328955705        0.4698411276
O             0.6077621270        0.4448823596        0.4715324031
H             0.5226536678        0.9611248733        0.4815722635
H             0.3341486994        0.1479826178        0.4887906497
C             0.3701290608        0.7262578308        0.4739073217
O             0.3762088315        0.3485041210        0.4997808133
C             0.5036033459        0.8741417625        0.5006374424
H             0.1518632425        0.4477184938        0.5203039072
Co            0.4057315061        0.4943750893        0.5334520986
N             0.4520189524        0.6457761672        0.5041822539
C             0.5781303256        0.8103460469        0.5500706623
C             0.6010973871        0.4146204412        0.5709355844
C             0.5566186051        0.6888174605        0.5678436802
C             0.3121875835        0.1769116646        0.5726122678
H             0.6602972846        0.8333549110        0.5746097063
C             0.3185088752        0.3023638730        0.5791879252
H             0.7642385241        0.3389553249        0.5869285921
H             0.2293764366        0.1469095750        0.5966112712
H             0.6477262992        0.2504616367        0.6105731399
H             0.6165630729        0.6333732978        0.6042780527
N             0.4225695810        0.6813243636        0.6338363988
C             0.6813875931        0.3346011489        0.6247143259
H             0.3730414622        0.1427724585        0.6320174421
O             0.5188713915        0.4457399374        0.6340980637
O             0.5088597211        0.6447250837        0.6878161061
O             0.2745782311        0.3576810218        0.6550859339
O             0.2860700952        0.6688021473        0.6739598455
H             0.6854263208        0.3479006343        0.7149804845



     Writing output data file ./tmp/NO2.save/
     NEW-OLD atomic charge density approx. for the potential

     Check: negative core charge=   -0.000007

     total cpu time spent up to now is       31.2 secs

     Self-consistent Calculation

     iteration #  1     ecut=    30.00 Ry     beta= 0.40
     Davidson diagonalization with overlap
     c_bands:  1 eigenvalues not converged
     c_bands:  2 eigenvalues not converged
     ethr =  1.00E-06,  avg # of iterations = 20.0

     total cpu time spent up to now is       32.5 secs

     total energy              =    -466.21677034 Ry
     Harris-Foulkes estimate   =    -466.32857524 Ry
     estimated scf accuracy    <       0.74948150 Ry

     total magnetization       =     2.00 Bohr mag/cell
     absolute magnetization    =     2.55 Bohr mag/cell

     iteration #  2     ecut=    30.00 Ry     beta= 0.40
     Davidson diagonalization with overlap
     ethr =  6.35E-04,  avg # of iterations =  1.0

     total cpu time spent up to now is       32.9 secs

     total energy              =    -466.22839991 Ry
     Harris-Foulkes estimate   =    -466.28545485 Ry
     estimated scf accuracy    <       0.43803594 Ry

     total magnetization       =     1.96 Bohr mag/cell
     absolute magnetization    =     2.29 Bohr mag/cell

     iteration #  3     ecut=    30.00 Ry     beta= 0.40
     Davidson diagonalization with overlap
     ethr =  3.71E-04,  avg # of iterations =  1.0

     total cpu time spent up to now is       33.2 secs

     total energy              =    -466.22889777 Ry
     Harris-Foulkes estimate   =    -466.25788277 Ry
     estimated scf accuracy    <       0.18269342 Ry

     total magnetization       =     2.00 Bohr mag/cell
     absolute magnetization    =     2.45 Bohr mag/cell

     iteration #  4     ecut=    30.00 Ry     beta= 0.40
     Davidson diagonalization with overlap
     ethr =  1.55E-04,  avg # of iterations =  1.5

     total cpu time spent up to now is       33.6 secs

     total energy              =    -466.23682325 Ry
     Harris-Foulkes estimate   =    -466.23980778 Ry
     estimated scf accuracy    <       0.01860120 Ry

     total magnetization       =     2.00 Bohr mag/cell
     absolute magnetization    =     2.38 Bohr mag/cell

     iteration #  5     ecut=    30.00 Ry     beta= 0.40
     Davidson diagonalization with overlap
     ethr =  1.58E-05,  avg # of iterations = 11.5

     total cpu time spent up to now is       34.1 secs

     total energy              =    -466.23838504 Ry
     Harris-Foulkes estimate   =    -466.23905095 Ry
     estimated scf accuracy    <       0.01246607 Ry

     total magnetization       =     2.00 Bohr mag/cell
     absolute magnetization    =     2.40 Bohr mag/cell

     iteration #  6     ecut=    30.00 Ry     beta= 0.40
     Davidson diagonalization with overlap
     c_bands:  1 eigenvalues not converged
     ethr =  1.06E-05,  avg # of iterations = 10.5

     total cpu time spent up to now is       34.6 secs

     total energy              =    -466.23701509 Ry
     Harris-Foulkes estimate   =    -466.23872379 Ry
     estimated scf accuracy    <       0.00598000 Ry

     total magnetization       =     2.00 Bohr mag/cell
     absolute magnetization    =     2.39 Bohr mag/cell

     iteration #  7     ecut=    30.00 Ry     beta= 0.40
     Davidson diagonalization with overlap
     ethr =  5.07E-06,  avg # of iterations =  6.5

     total cpu time spent up to now is       35.0 secs

     total energy              =    -466.23779870 Ry
     Harris-Foulkes estimate   =    -466.23804615 Ry
     estimated scf accuracy    <       0.00209578 Ry

     total magnetization       =     2.00 Bohr mag/cell
     absolute magnetization    =     2.39 Bohr mag/cell

     iteration #  8     ecut=    30.00 Ry     beta= 0.40
     Davidson diagonalization with overlap
     ethr =  1.78E-06,  avg # of iterations =  3.5

     total cpu time spent up to now is       35.4 secs

     total energy              =    -466.23684465 Ry
     Harris-Foulkes estimate   =    -466.23786563 Ry
     estimated scf accuracy    <       0.00148647 Ry

     total magnetization       =     2.00 Bohr mag/cell
     absolute magnetization    =     2.40 Bohr mag/cell

     iteration #  9     ecut=    30.00 Ry     beta= 0.40
     Davidson diagonalization with overlap
     ethr =  1.26E-06,  avg # of iterations =  8.5

     total cpu time spent up to now is       35.9 secs

     total energy              =    -466.23681993 Ry
     Harris-Foulkes estimate   =    -466.23706594 Ry
     estimated scf accuracy    <       0.00050582 Ry

     total magnetization       =     2.00 Bohr mag/cell
     absolute magnetization    =     2.41 Bohr mag/cell

     iteration # 10     ecut=    30.00 Ry     beta= 0.40
     Davidson diagonalization with overlap
     ethr =  4.29E-07,  avg # of iterations =  1.5

     total cpu time spent up to now is       36.2 secs

     total energy              =    -466.23657342 Ry
     Harris-Foulkes estimate   =    -466.23685533 Ry
     estimated scf accuracy    <       0.00047232 Ry

     total magnetization       =     2.00 Bohr mag/cell
     absolute magnetization    =     2.42 Bohr mag/cell

     iteration # 11     ecut=    30.00 Ry     beta= 0.40
     Davidson diagonalization with overlap
     ethr =  4.00E-07,  avg # of iterations =  4.5

     total cpu time spent up to now is       36.6 secs

     total energy              =    -466.23646686 Ry
     Harris-Foulkes estimate   =    -466.23659362 Ry
     estimated scf accuracy    <       0.00016125 Ry

     total magnetization       =     2.00 Bohr mag/cell
     absolute magnetization    =     2.42 Bohr mag/cell

     iteration # 12     ecut=    30.00 Ry     beta= 0.40
     Davidson diagonalization with overlap
     ethr =  1.37E-07,  avg # of iterations =  2.0

     total cpu time spent up to now is       37.0 secs

     total energy              =    -466.23639699 Ry
     Harris-Foulkes estimate   =    -466.23647545 Ry
     estimated scf accuracy    <       0.00019998 Ry

     total magnetization       =     2.00 Bohr mag/cell
     absolute magnetization    =     2.42 Bohr mag/cell

     iteration # 13     ecut=    30.00 Ry     beta= 0.40
     Davidson diagonalization with overlap
     ethr =  1.37E-07,  avg # of iterations =  7.5

     total cpu time spent up to now is       37.4 secs

     total energy              =    -466.23639450 Ry
     Harris-Foulkes estimate   =    -466.23640276 Ry
     estimated scf accuracy    <       0.00004278 Ry

     total magnetization       =     2.00 Bohr mag/cell
     absolute magnetization    =     2.42 Bohr mag/cell

     iteration # 14     ecut=    30.00 Ry     beta= 0.40
     Davidson diagonalization with overlap
     ethr =  3.63E-08,  avg # of iterations =  2.0

     total cpu time spent up to now is       37.8 secs

     total energy              =    -466.23640698 Ry
     Harris-Foulkes estimate   =    -466.23640070 Ry
     estimated scf accuracy    <       0.00002838 Ry

     total magnetization       =     2.00 Bohr mag/cell
     absolute magnetization    =     2.42 Bohr mag/cell

     iteration # 15     ecut=    30.00 Ry     beta= 0.40
     Davidson diagonalization with overlap
     ethr =  2.40E-08,  avg # of iterations =  1.5

     total cpu time spent up to now is       38.1 secs

     total energy              =    -466.23641138 Ry
     Harris-Foulkes estimate   =    -466.23640468 Ry
     estimated scf accuracy    <       0.00001343 Ry

     total magnetization       =     2.00 Bohr mag/cell
     absolute magnetization    =     2.42 Bohr mag/cell

     iteration # 16     ecut=    30.00 Ry     beta= 0.40
     Davidson diagonalization with overlap
     ethr =  1.14E-08,  avg # of iterations =  2.0

     total cpu time spent up to now is       38.5 secs

     total energy              =    -466.23642068 Ry
     Harris-Foulkes estimate   =    -466.23641205 Ry
     estimated scf accuracy    <       0.00000677 Ry

     total magnetization       =     2.00 Bohr mag/cell
     absolute magnetization    =     2.42 Bohr mag/cell

     iteration # 17     ecut=    30.00 Ry     beta= 0.40
     Davidson diagonalization with overlap
     ethr =  5.74E-09,  avg # of iterations =  2.0

     total cpu time spent up to now is       38.8 secs

     total energy              =    -466.23642389 Ry
     Harris-Foulkes estimate   =    -466.23642137 Ry
     estimated scf accuracy    <       0.00000256 Ry

     total magnetization       =     2.00 Bohr mag/cell
     absolute magnetization    =     2.42 Bohr mag/cell

     iteration # 18     ecut=    30.00 Ry     beta= 0.40
     Davidson diagonalization with overlap
     ethr =  2.17E-09,  avg # of iterations =  2.0

     total cpu time spent up to now is       39.2 secs

     total energy              =    -466.23642506 Ry
     Harris-Foulkes estimate   =    -466.23642415 Ry
     estimated scf accuracy    <       0.00000115 Ry

     total magnetization       =     2.00 Bohr mag/cell
     absolute magnetization    =     2.42 Bohr mag/cell

     iteration # 19     ecut=    30.00 Ry     beta= 0.40
     Davidson diagonalization with overlap
     ethr =  9.72E-10,  avg # of iterations =  1.0

     Magnetic moment per site:
     atom:    1    charge:    0.4862    magn:    0.0006    constr:    0.0000
     atom:    2    charge:    0.4903    magn:   -0.0003    constr:    0.0000
     atom:    3    charge:    0.5032    magn:   -0.0001    constr:    0.0000
     atom:    4    charge:    0.5061    magn:    0.0001    constr:    0.0000
     atom:    5    charge:    0.8382    magn:   -0.0002    constr:    0.0000
     atom:    6    charge:    0.8491    magn:   -0.0137    constr:    0.0000
     atom:    7    charge:    1.3501    magn:    0.0023    constr:    0.0000
     atom:    8    charge:    0.8646    magn:   -0.0060    constr:    0.0000
     atom:    9    charge:    2.9778    magn:    0.0390    constr:    0.0000
     atom:   10    charge:    0.4865    magn:    0.0001    constr:    0.0000
     atom:   11    charge:    0.4884    magn:    0.0005    constr:    0.0000
     atom:   12    charge:    0.7758    magn:    0.0032    constr:    0.0000
     atom:   13    charge:    2.9839    magn:    0.0075    constr:    0.0000
     atom:   14    charge:    0.8457    magn:   -0.0005    constr:    0.0000
     atom:   15    charge:    0.4832    magn:    0.0008    constr:    0.0000
     atom:   16    charge:    6.2315    magn:    1.1368    constr:    0.0000
     atom:   17    charge:    0.8691    magn:    0.0199    constr:    0.0000
     atom:   18    charge:    0.8384    magn:   -0.0033    constr:    0.0000
     atom:   19    charge:    0.8200    magn:   -0.0004    constr:    0.0000
     atom:   20    charge:    0.7547    magn:    0.0019    constr:    0.0000
     atom:   21    charge:    0.8459    magn:   -0.0002    constr:    0.0000
     atom:   22    charge:    0.5051    magn:    0.0000    constr:    0.0000
     atom:   23    charge:    0.8205    magn:   -0.0006    constr:    0.0000
     atom:   24    charge:    0.4883    magn:    0.0002    constr:    0.0000
     atom:   25    charge:    0.4850    magn:    0.0001    constr:    0.0000
     atom:   26    charge:    0.4806    magn:   -0.0001    constr:    0.0000
     atom:   27    charge:    0.5104    magn:   -0.0009    constr:    0.0000
     atom:   28    charge:    1.0306    magn:    0.0245    constr:    0.0000
     atom:   29    charge:    0.8468    magn:    0.0001    constr:    0.0000
     atom:   30    charge:    0.4807    magn:   -0.0002    constr:    0.0000
     atom:   31    charge:    2.9774    magn:    0.0081    constr:    0.0000
     atom:   32    charge:    1.8969    magn:    0.0106    constr:    0.0000
     atom:   33    charge:    2.9778    magn:    0.0252    constr:    0.0000
     atom:   34    charge:    1.7112    magn:    0.1343    constr:    0.0000
     atom:   35    charge:    0.4850    magn:    0.0005    constr:    0.0000

     total cpu time spent up to now is       39.6 secs

     End of self-consistent calculation

 ------ SPIN UP ------------


          k = 0.0000 0.0000 0.0000 ( 16212 PWs)   bands (ev):

   -29.2708 -25.5703 -25.3811 -24.1987 -22.9579 -22.9103 -22.6040 -20.9133
   -20.0249 -19.3127 -17.6329 -16.9886 -16.9224 -16.8851 -15.6691 -15.4244
   -14.2450 -13.2336 -12.7956 -12.2102 -12.0531 -11.8251 -11.7479 -11.1725
   -11.0999 -10.8799 -10.2869 -10.1731 -10.1433 -10.0648  -9.9607  -9.7294
    -9.6815  -9.6038  -9.5320  -9.2932  -8.7934  -8.4240  -8.3562  -8.2225
    -8.1571  -8.0631  -8.0145  -7.5799  -7.4747  -6.9075  -6.5283  -6.2829
    -6.0792  -6.0219  -5.7498  -5.6936  -5.2721  -4.7987  -4.7433  -4.6069
    -4.5835  -4.4407  -4.3395  -4.0684  -2.8296  -2.4519  -1.7544  -0.8989
    -0.1642   0.0091   0.4426   0.6076   0.7337   0.9105   0.9609

 ------ SPIN DOWN ----------


          k = 0.0000 0.0000 0.0000 ( 16212 PWs)   bands (ev):

   -29.1877 -25.5342 -25.3439 -24.1396 -22.9056 -22.8569 -22.5822 -20.4829
   -19.9426 -19.2756 -17.5970 -16.9419 -16.9031 -16.8770 -15.5522 -15.4220
   -14.2456 -13.1928 -12.7226 -12.1768 -12.0199 -11.8006 -11.6916 -11.1160
   -11.0648 -10.8616 -10.2613 -10.1203 -10.0830  -9.9865  -9.8846  -9.6910
    -9.6053  -9.5779  -9.4788  -9.2534  -8.7656  -8.3805  -8.3070  -8.1871
    -8.1029  -8.0532  -7.8972  -7.5553  -7.4666  -6.6844  -6.3770  -6.1858
    -5.8846  -5.7289  -5.5532  -4.9236  -4.8273  -4.5015  -4.3746  -4.0015
    -3.9007  -3.6867  -3.2332  -2.7505  -2.6168  -1.8704  -1.3668  -0.8475
     0.0145   0.0591   0.4625   0.6213   0.7484   0.9115   0.9673

     the Fermi energy is    -3.5725 ev

!    total energy              =    -466.23642591 Ry
     Harris-Foulkes estimate   =    -466.23642510 Ry
     estimated scf accuracy    <       0.00000084 Ry

     The total energy is the sum of the following terms:

     one-electron contribution =   -1857.11268066 Ry
     hartree contribution      =     954.05365620 Ry
     xc contribution           =    -137.85437048 Ry
     ewald contribution        =     574.73154030 Ry
     DFT-D3 Dispersion         =      -0.05493464 Ry
     smearing contrib. (-TS)   =       0.00036338 Ry

     total magnetization       =     2.00 Bohr mag/cell
     absolute magnetization    =     2.42 Bohr mag/cell

     convergence has been achieved in  19 iterations

     Forces acting on atoms (cartesian axes, Ry/au):

     atom    1 type  3   force =    -0.00037897    0.00027574   -0.00082830
     atom    2 type  3   force =     0.00172577    0.00033698   -0.00058877
     atom    3 type  3   force =    -0.03273633    0.00359968   -0.00275460
     atom    4 type  3   force =    -0.02166618    0.03601611   -0.00128484
     atom    5 type  1   force =    -0.00190528   -0.00240409    0.00473624
     atom    6 type  1   force =    -0.02680198   -0.05107910   -0.02234866
     atom    7 type  4   force =    -0.00882739    0.03479858   -0.03182448
     atom    8 type  1   force =     0.03591530    0.07765974   -0.02193344
     atom    9 type  5   force =    -0.00022772   -0.00488784   -0.00081334
     atom   10 type  3   force =    -0.00138786   -0.00186820    0.00407526
     atom   11 type  3   force =    -0.00111209   -0.00151171    0.00028691
     atom   12 type  1   force =     0.04452950   -0.09330192   -0.05575280
     atom   13 type  5   force =     0.00268990   -0.00978283   -0.00954394
     atom   14 type  1   force =    -0.06900316    0.04595268   -0.04075079
     atom   15 type  3   force =    -0.00100905    0.00010903    0.00137800
     atom   16 type  2   force =    -0.00053507    0.02536895   -0.03081323
     atom   17 type  4   force =     0.08902623   -0.01289208    0.09455181
     atom   18 type  1   force =     0.03980794   -0.12237597    0.03985580
     atom   19 type  1   force =     0.01237658   -0.00843061   -0.00987158
     atom   20 type  1   force =     0.02303030    0.05518930   -0.06340568
     atom   21 type  1   force =     0.00113204   -0.00204927   -0.00096640
     atom   22 type  3   force =     0.02578753    0.02456191    0.00595099
     atom   23 type  1   force =    -0.01867199   -0.00767577    0.02343122
     atom   24 type  3   force =     0.00060701    0.00130367   -0.00087439
     atom   25 type  3   force =     0.00036343    0.00121067    0.00099985
     atom   26 type  3   force =     0.00156380   -0.00005761    0.00059998
     atom   27 type  3   force =     0.07610937   -0.02652361   -0.10222280
     atom   28 type  4   force =    -0.26897478    0.03377525    0.16354379
     atom   29 type  1   force =     0.00330954    0.00013908   -0.00052324
     atom   30 type  3   force =    -0.00133791   -0.00102454    0.00035205
     atom   31 type  5   force =    -0.02045620   -0.00638057   -0.01031722
     atom   32 type  5   force =    -0.04645850    0.03138230    0.09962729
     atom   33 type  5   force =     0.00386812   -0.00869313   -0.00635185
     atom   34 type  5   force =     0.15849713   -0.01112125   -0.02465309
     atom   35 type  3   force =     0.00115095    0.00038043   -0.00096575

     Total force =     0.493140     Total SCF correction =     0.001326

     number of scf cycles    =   3
     number of bfgs steps    =   2

     energy   old            =    -466.1227432385 Ry
     energy   new            =    -466.2364259084 Ry

     CASE: energy  _new < energy  _old

     new trust radius        =       0.1606827990 bohr
     new conv_thr            =       0.0000010000 Ry


ATOMIC_POSITIONS (crystal)
H             0.2017368227        0.4239043399        0.3835219579
H             0.1116008924        0.5410077366        0.4101313355
H             0.1996234255        0.7074063956        0.4272854369
H             0.3333697178        0.8864115278        0.4318304342
C             0.1791312800        0.4891143385        0.4436804978
C             0.2724506574        0.6625540524        0.4551103294
N             0.2774191496        0.5556944021        0.4673070970
C             0.3962678653        0.8360972400        0.4688737959
O             0.6077470926        0.4446747172        0.4714886099
H             0.5225997445        0.9610500734        0.4817389377
H             0.3341008639        0.1479188981        0.4888047152
C             0.3719485167        0.7227123998        0.4708196691
O             0.3762872616        0.3481045443        0.4994752071
C             0.5010597798        0.8758619132        0.4991225168
H             0.1518256880        0.4477216423        0.5203587503
Co            0.4056957775        0.4951574741        0.5318901201
N             0.4551494868        0.6456711112        0.5105381468
C             0.5797948106        0.8060941355        0.5515492098
C             0.6015783416        0.4142771388        0.5705534399
C             0.5568725575        0.6901110012        0.5657707929
C             0.3122277178        0.1768327959        0.5725762307
H             0.6613067707        0.8343557363        0.5748379791
C             0.3177685008        0.3020292892        0.5801082531
H             0.7642628127        0.3390132498        0.5868915200
H             0.2293928271        0.1469602973        0.5966537948
H             0.6477943015        0.2504578708        0.6105985192
H             0.6202098237        0.6322019053        0.5997837975
N             0.4177437868        0.6828665539        0.6370696958
C             0.6815230130        0.3346078756        0.6246919233
H             0.3729849738        0.1427276260        0.6320323065
O             0.5180734277        0.4453673605        0.6336336658
O             0.5064627774        0.6464464347        0.6917252293
O             0.2747344833        0.3573399581        0.6548408210
O             0.2875178661        0.6678411429        0.6750262701
H             0.6854771856        0.3479168217        0.7149389933



     Writing output data file ./tmp/NO2.save/
     NEW-OLD atomic charge density approx. for the potential

     Check: negative core charge=   -0.000007

     total cpu time spent up to now is       42.9 secs

     Self-consistent Calculation

     iteration #  1     ecut=    30.00 Ry     beta= 0.40
     Davidson diagonalization with overlap
     ethr =  1.00E-06,  avg # of iterations =  9.0

     total cpu time spent up to now is       44.1 secs

     total energy              =    -466.34825021 Ry
     Harris-Foulkes estimate   =    -466.35812221 Ry
     estimated scf accuracy    <       0.05518469 Ry

     total magnetization       =     2.00 Bohr mag/cell
     absolute magnetization    =     2.43 Bohr mag/cell

     iteration #  2     ecut=    30.00 Ry     beta= 0.40
     Davidson diagonalization with overlap
     ethr =  4.68E-05,  avg # of iterations =  1.0

     total cpu time spent up to now is       44.4 secs

     total energy              =    -466.34617538 Ry
     Harris-Foulkes estimate   =    -466.35036116 Ry
     estimated scf accuracy    <       0.01663424 Ry

     total magnetization       =     2.00 Bohr mag/cell
     absolute magnetization    =     2.43 Bohr mag/cell

     iteration #  3     ecut=    30.00 Ry     beta= 0.40
     Davidson diagonalization with overlap
     ethr =  1.41E-05,  avg # of iterations =  3.0

     total cpu time spent up to now is       44.8 secs

     total energy              =    -466.34611640 Ry
     Harris-Foulkes estimate   =    -466.34747256 Ry
     estimated scf accuracy    <       0.00702312 Ry

     total magnetization       =     2.00 Bohr mag/cell
     absolute magnetization    =     2.42 Bohr mag/cell

     iteration #  4     ecut=    30.00 Ry     beta= 0.40
     Davidson diagonalization with overlap
     ethr =  5.95E-06,  avg # of iterations =  1.0

     total cpu time spent up to now is       45.1 secs

     total energy              =    -466.34639173 Ry
     Harris-Foulkes estimate   =    -466.34681200 Ry
     estimated scf accuracy    <       0.00465293 Ry

     total magnetization       =     2.00 Bohr mag/cell
     absolute magnetization    =     2.45 Bohr mag/cell

     iteration #  5     ecut=    30.00 Ry     beta= 0.40
     Davidson diagonalization with overlap
     ethr =  3.94E-06,  avg # of iterations =  6.0

     total cpu time spent up to now is       45.6 secs

     total energy              =    -466.34646038 Ry
     Harris-Foulkes estimate   =    -466.34654844 Ry
     estimated scf accuracy    <       0.00057235 Ry

     total magnetization       =     2.00 Bohr mag/cell
     absolute magnetization    =     2.44 Bohr mag/cell

     iteration #  6     ecut=    30.00 Ry     beta= 0.40
     Davidson diagonalization with overlap
     ethr =  4.85E-07,  avg # of iterations =  7.0

     total cpu time spent up to now is       46.0 secs

     total energy              =    -466.34652036 Ry
     Harris-Foulkes estimate   =    -466.34651210 Ry
     estimated scf accuracy    <       0.00023669 Ry

     total magnetization       =     2.00 Bohr mag/cell
     absolute magnetization    =     2.44 Bohr mag/cell

     iteration #  7     ecut=    30.00 Ry     beta= 0.40
     Davidson diagonalization with overlap
     ethr =  2.01E-07,  avg # of iterations =  1.5

     total cpu time spent up to now is       46.3 secs

     total energy              =    -466.34654292 Ry
     Harris-Foulkes estimate   =    -466.34653767 Ry
     estimated scf accuracy    <       0.00010507 Ry

     total magnetization       =     2.00 Bohr mag/cell
     absolute magnetization    =     2.44 Bohr mag/cell

     iteration #  8     ecut=    30.00 Ry     beta= 0.40
     Davidson diagonalization with overlap
     ethr =  8.90E-08,  avg # of iterations =  1.5

     total cpu time spent up to now is       46.7 secs

     total energy              =    -466.34656325 Ry
     Harris-Foulkes estimate   =    -466.34654902 Ry
     estimated scf accuracy    <       0.00005385 Ry

     total magnetization       =     2.00 Bohr mag/cell
     absolute magnetization    =     2.44 Bohr mag/cell

     iteration #  9     ecut=    30.00 Ry     beta= 0.40
     Davidson diagonalization with overlap
     ethr =  4.56E-08,  avg # of iterations =  2.0

     total cpu time spent up to now is       47.1 secs

     total energy              =    -466.34658414 Ry
     Harris-Foulkes estimate   =    -466.34656823 Ry
     estimated scf accuracy    <       0.00001991 Ry

     total magnetization       =     2.00 Bohr mag/cell
     absolute magnetization    =     2.44 Bohr mag/cell

     iteration # 10     ecut=    30.00 Ry     beta= 0.40
     Davidson diagonalization with overlap
     ethr =  1.69E-08,  avg # of iterations =  1.5

     total cpu time spent up to now is       47.4 secs

     total energy              =    -466.34659273 Ry
     Harris-Foulkes estimate   =    -466.34658516 Ry
     estimated scf accuracy    <       0.00001068 Ry

     total magnetization       =     2.00 Bohr mag/cell
     absolute magnetization    =     2.44 Bohr mag/cell

     iteration # 11     ecut=    30.00 Ry     beta= 0.40
     Davidson diagonalization with overlap
     ethr =  9.05E-09,  avg # of iterations =  1.5

     total cpu time spent up to now is       47.8 secs

     total energy              =    -466.34659451 Ry
     Harris-Foulkes estimate   =    -466.34659332 Ry
     estimated scf accuracy    <       0.00000634 Ry

     total magnetization       =     2.00 Bohr mag/cell
     absolute magnetization    =     2.44 Bohr mag/cell

     iteration # 12     ecut=    30.00 Ry     beta= 0.40
     Davidson diagonalization with overlap
     ethr =  5.37E-09,  avg # of iterations =  1.5

     total cpu time spent up to now is       48.1 secs

     total energy              =    -466.34659570 Ry
     Harris-Foulkes estimate   =    -466.34659488 Ry
     estimated scf accuracy    <       0.00000279 Ry

     total magnetization       =     2.00 Bohr mag/cell
[...]
N             0.2896749367        0.5523505414        0.4688176518
C             0.4172729991        0.8275965784        0.4372191427
O             0.5667270544        0.4596710944        0.4765188257
H             0.5278147706        0.9676339396        0.4594403110
H             0.2938167534        0.1378887615        0.5052967960
C             0.3984672037        0.7162401166        0.4658088907
O             0.3797595826        0.3339353470        0.5051963784
C             0.5113089449        0.8806041550        0.4794746746
H             0.1449322917        0.4697403888        0.5144697543
Co            0.4011201952        0.4915316410        0.5672792838
N             0.4691345995        0.6593546723        0.5323014762
C             0.5836599036        0.8209705561        0.5481318909
C             0.5944901011        0.4237395808        0.5714593079
C             0.5592928039        0.7100219868        0.5726014671
C             0.2887224165        0.1755267705        0.5883250620
H             0.6579612791        0.8596324138        0.5830306607
C             0.3158112497        0.2978786846        0.5839571928
H             0.7667015900        0.3979005287        0.5314415854
H             0.2059301313        0.1626904682        0.6246383270
H             0.6959264058        0.2793419133        0.5855508209
H             0.6122440249        0.6601187768        0.6269355751
N             0.3466405799        0.5805545094        0.7005811974
C             0.7053898883        0.3701466629        0.5931305956
H             0.3499483728        0.1344094744        0.6426967423
O             0.5242427372        0.4320631152        0.6529356022
O             0.4146821423        0.6053768928        0.7734559959
O             0.2792677510        0.3648491162        0.6559686537
O             0.2465682442        0.6053198368        0.7019978978
H             0.7338309182        0.3887044210        0.6779124764



     Writing output data file ./tmp/NO2.save/
     NEW-OLD atomic charge density approx. for the potential

     Check: negative core charge=   -0.000007

     total cpu time spent up to now is     1234.5 secs

     Self-consistent Calculation

     iteration #  1     ecut=    30.00 Ry     beta= 0.40
     Davidson diagonalization with overlap
     ethr =  1.00E-06,  avg # of iterations =  3.0

     Threshold (ethr) on eigenvalues was too large:
     Diagonalizing with lowered threshold

     Davidson diagonalization with overlap
     ethr =  9.81E-08,  avg # of iterations =  1.0

     total cpu time spent up to now is     1235.6 secs

     total energy              =    -466.93341509 Ry
     Harris-Foulkes estimate   =    -466.93342947 Ry
     estimated scf accuracy    <       0.00011515 Ry

     total magnetization       =     2.00 Bohr mag/cell
     absolute magnetization    =     2.29 Bohr mag/cell

     iteration #  2     ecut=    30.00 Ry     beta= 0.40
     Davidson diagonalization with overlap
     ethr =  9.76E-08,  avg # of iterations =  1.0

     total cpu time spent up to now is     1236.0 secs

     total energy              =    -466.93339892 Ry
     Harris-Foulkes estimate   =    -466.93341678 Ry
     estimated scf accuracy    <       0.00005220 Ry

     total magnetization       =     2.00 Bohr mag/cell
     absolute magnetization    =     2.29 Bohr mag/cell

     iteration #  3     ecut=    30.00 Ry     beta= 0.40
     Davidson diagonalization with overlap
     ethr =  4.42E-08,  avg # of iterations =  2.0

     total cpu time spent up to now is     1236.3 secs

     total energy              =    -466.93340394 Ry
     Harris-Foulkes estimate   =    -466.93340325 Ry
     estimated scf accuracy    <       0.00000333 Ry

     total magnetization       =     2.00 Bohr mag/cell
     absolute magnetization    =     2.29 Bohr mag/cell

     iteration #  4     ecut=    30.00 Ry     beta= 0.40
     Davidson diagonalization with overlap
     ethr =  2.82E-09,  avg # of iterations =  2.0

     total cpu time spent up to now is     1236.7 secs

     total energy              =    -466.93340474 Ry
     Harris-Foulkes estimate   =    -466.93340428 Ry
     estimated scf accuracy    <       0.00000167 Ry

     total magnetization       =     2.00 Bohr mag/cell
     absolute magnetization    =     2.29 Bohr mag/cell

     iteration #  5     ecut=    30.00 Ry     beta= 0.40
     Davidson diagonalization with overlap
     ethr =  1.41E-09,  avg # of iterations =  1.0

     total cpu time spent up to now is     1237.0 secs

     total energy              =    -466.93340497 Ry
     Harris-Foulkes estimate   =    -466.93340482 Ry
     estimated scf accuracy    <       0.00000064 Ry

     total magnetization       =     2.00 Bohr mag/cell
     absolute magnetization    =     2.29 Bohr mag/cell

     iteration #  6     ecut=    30.00 Ry     beta= 0.40
     Davidson diagonalization with overlap
     ethr =  5.41E-10,  avg # of iterations =  2.0

     total cpu time spent up to now is     1237.4 secs

     total energy              =    -466.93340516 Ry
     Harris-Foulkes estimate   =    -466.93340502 Ry
     estimated scf accuracy    <       0.00000020 Ry

     total magnetization       =     2.00 Bohr mag/cell
     absolute magnetization    =     2.29 Bohr mag/cell

     iteration #  7     ecut=    30.00 Ry     beta= 0.40
     Davidson diagonalization with overlap
     ethr =  1.73E-10,  avg # of iterations =  1.0

     total cpu time spent up to now is     1237.7 secs

     total energy              =    -466.93340524 Ry
     Harris-Foulkes estimate   =    -466.93340517 Ry
     estimated scf accuracy    <       0.00000009 Ry

     total magnetization       =     2.00 Bohr mag/cell
     absolute magnetization    =     2.29 Bohr mag/cell

     iteration #  8     ecut=    30.00 Ry     beta= 0.40
     Davidson diagonalization with overlap
     ethr =  7.43E-11,  avg # of iterations =  2.0

     total cpu time spent up to now is     1238.1 secs

     total energy              =    -466.93340532 Ry
     Harris-Foulkes estimate   =    -466.93340525 Ry
     estimated scf accuracy    <       0.00000004 Ry

     total magnetization       =     2.00 Bohr mag/cell
     absolute magnetization    =     2.29 Bohr mag/cell

     iteration #  9     ecut=    30.00 Ry     beta= 0.40
     Davidson diagonalization with overlap
     ethr =  3.17E-11,  avg # of iterations =  2.0

     total cpu time spent up to now is     1238.5 secs

     total energy              =    -466.93340535 Ry
     Harris-Foulkes estimate   =    -466.93340533 Ry
     estimated scf accuracy    <       0.00000002 Ry

     total magnetization       =     2.00 Bohr mag/cell
     absolute magnetization    =     2.29 Bohr mag/cell

     iteration # 10     ecut=    30.00 Ry     beta= 0.40
     Davidson diagonalization with overlap
     ethr =  1.34E-11,  avg # of iterations =  2.0

     Magnetic moment per site:
     atom:    1    charge:    0.4256    magn:    0.0001    constr:    0.0000
     atom:    2    charge:    0.2451    magn:   -0.0001    constr:    0.0000
     atom:    3    charge:    0.0890    magn:   -0.0007    constr:    0.0000
     atom:    4    charge:    0.1746    magn:    0.0000    constr:    0.0000
     atom:    5    charge:    0.8091    magn:   -0.0004    constr:    0.0000
     atom:    6    charge:    0.5403    magn:   -0.0088    constr:    0.0000
     atom:    7    charge:    1.2719    magn:    0.0017    constr:    0.0000
     atom:    8    charge:    0.5564    magn:   -0.0008    constr:    0.0000
     atom:    9    charge:    1.5474    magn:    0.0372    constr:    0.0000
     atom:   10    charge:    0.4964    magn:   -0.0000    constr:    0.0000
     atom:   11    charge:    0.1877    magn:    0.0004    constr:    0.0000
     atom:   12    charge:    0.6006    magn:   -0.0007    constr:    0.0000
     atom:   13    charge:    2.6714    magn:    0.0406    constr:    0.0000
     atom:   14    charge:    0.7359    magn:   -0.0007    constr:    0.0000
     atom:   15    charge:    0.3612    magn:    0.0002    constr:    0.0000
     atom:   16    charge:    5.5977    magn:    1.3861    constr:    0.0000
     atom:   17    charge:    1.1228    magn:    0.0319    constr:    0.0000
     atom:   18    charge:    0.8222    magn:    0.0008    constr:    0.0000
     atom:   19    charge:    0.7876    magn:   -0.0015    constr:    0.0000
     atom:   20    charge:    0.7971    magn:    0.0004    constr:    0.0000
     atom:   21    charge:    0.7078    magn:    0.0002    constr:    0.0000
     atom:   22    charge:    0.4645    magn:    0.0002    constr:    0.0000
     atom:   23    charge:    0.8176    magn:   -0.0017    constr:    0.0000
     atom:   24    charge:    0.3103    magn:   -0.0000    constr:    0.0000
     atom:   25    charge:    0.5283    magn:    0.0004    constr:    0.0000
     atom:   26    charge:    0.0768    magn:   -0.0000    constr:    0.0000
     atom:   27    charge:    0.3498    magn:    0.0011    constr:    0.0000
     atom:   28    charge:    0.0614    magn:   -0.0004    constr:    0.0000
     atom:   29    charge:    0.4924    magn:    0.0000    constr:    0.0000
     atom:   30    charge:    0.3423    magn:   -0.0001    constr:    0.0000
     atom:   31    charge:    2.4150    magn:   -0.0104    constr:    0.0000
     atom:   32    charge:    0.0757    magn:    0.0001    constr:    0.0000
     atom:   33    charge:    2.9091    magn:    0.0667    constr:    0.0000
     atom:   34    charge:    0.1188    magn:    0.0001    constr:    0.0000
     atom:   35    charge:    0.0587    magn:    0.0001    constr:    0.0000

     total cpu time spent up to now is     1238.8 secs

     End of self-consistent calculation

 ------ SPIN UP ------------


          k = 0.0000 0.0000 0.0000 ( 16212 PWs)   bands (ev):

   -28.6514 -25.6360 -25.4012 -24.5031 -23.7510 -22.8933 -22.8106 -22.7661
   -19.5880 -19.0331 -17.1753 -17.0094 -16.9267 -15.4784 -15.2739 -13.8370
   -13.7940 -12.7077 -11.9143 -11.7347 -11.5703 -11.3552 -11.1207 -10.8648
   -10.8076 -10.5545 -10.4371 -10.3005 -10.1390 -10.1079  -9.8331  -9.8030
    -9.6673  -9.6123  -9.5611  -9.4591  -9.0627  -8.4178  -8.3684  -8.3121
    -8.0329  -7.8740  -7.6545  -7.6195  -7.2654  -6.9396  -6.5206  -6.2604
    -6.1561  -6.0687  -5.9197  -5.8049  -5.6956  -5.5128  -5.1134  -4.9918
    -4.8063  -4.6696  -4.2437  -3.5409  -2.6344  -2.2919  -1.3267  -0.8259
     0.0089   0.1533   0.5686   0.6561   0.8267   0.9103   1.0544

 ------ SPIN DOWN ----------


          k = 0.0000 0.0000 0.0000 ( 16212 PWs)   bands (ev):

   -28.6412 -25.5854 -25.2984 -24.4990 -23.7163 -22.8361 -22.7762 -22.6364
   -19.5762 -19.0316 -17.1808 -17.0000 -16.9104 -15.4717 -15.2621 -13.8024
   -13.7728 -12.6888 -11.8925 -11.7222 -11.5191 -11.3402 -11.0792 -10.8255
   -10.7943 -10.5438 -10.4257 -10.2719 -10.0863 -10.0202  -9.7733  -9.7572
    -9.6131  -9.5471  -9.5265  -9.4091  -9.0377  -8.4022  -8.3234  -8.2607
    -7.9930  -7.7240  -7.6684  -7.5721  -6.8800  -6.7537  -6.1706  -6.0570
    -5.9742  -5.8906  -5.6477  -5.4383  -5.2559  -5.0892  -4.8544  -4.5814
    -4.0028  -3.7962  -2.6051  -2.2969  -2.0991  -1.4259  -1.2764  -0.7719
     0.0163   0.1252   0.5780   0.6700   0.8369   0.9175   1.0598

     the Fermi energy is    -3.4267 ev

!    total energy              =    -466.93340538 Ry
     Harris-Foulkes estimate   =    -466.93340535 Ry
     estimated scf accuracy    <          8.2E-09 Ry

     The total energy is the sum of the following terms:

     one-electron contribution =   -1791.85250180 Ry
     hartree contribution      =     921.79571719 Ry
     xc contribution           =    -137.94117151 Ry
     ewald contribution        =     541.11825252 Ry
     DFT-D3 Dispersion         =      -0.05400029 Ry
     smearing contrib. (-TS)   =       0.00029852 Ry

     total magnetization       =     2.00 Bohr mag/cell
     absolute magnetization    =     2.29 Bohr mag/cell

     convergence has been achieved in  10 iterations

     Forces acting on atoms (cartesian axes, Ry/au):

     atom    1 type  3   force =    -0.00045228    0.00010825   -0.00071706
     atom    2 type  3   force =    -0.00012130    0.00062089    0.00047816
     atom    3 type  3   force =     0.00060996   -0.00058067   -0.00006533
     atom    4 type  3   force =    -0.00038406   -0.00015212   -0.00047444
     atom    5 type  1   force =    -0.00008207   -0.00029600    0.00037379
     atom    6 type  1   force =    -0.00030361    0.00048142    0.00003690
     atom    7 type  4   force =     0.00006824   -0.00026569   -0.00036689
     atom    8 type  1   force =    -0.00036398    0.00028122   -0.00030398
     atom    9 type  5   force =    -0.00025260    0.00004168    0.00042637
     atom   10 type  3   force =    -0.00028410   -0.00036927   -0.00003635
     atom   11 type  3   force =     0.00014748   -0.00049088   -0.00022210
     atom   12 type  1   force =     0.00071731    0.00005140    0.00028406
     atom   13 type  5   force =     0.00032086    0.00011366   -0.00010053
     atom   14 type  1   force =    -0.00032999   -0.00054603   -0.00033245
     atom   15 type  3   force =     0.00047402    0.00017829    0.00064897
     atom   16 type  2   force =    -0.00039878   -0.00017229   -0.00042496
     atom   17 type  4   force =     0.00062458    0.00013143    0.00038315
     atom   18 type  1   force =    -0.00021287   -0.00004491    0.00033139
     atom   19 type  1   force =    -0.00008262    0.00031465   -0.00046810
     atom   20 type  1   force =    -0.00021052    0.00053657    0.00074195
     atom   21 type  1   force =     0.00003819    0.00005787   -0.00040173
     atom   22 type  3   force =    -0.00031738   -0.00028522   -0.00026606
     atom   23 type  1   force =     0.00043468   -0.00000909    0.00006014
     atom   24 type  3   force =    -0.00052388    0.00021464    0.00069355
     atom   25 type  3   force =     0.00036115    0.00010069   -0.00018663
     atom   26 type  3   force =     0.00000349    0.00027225    0.00052212
     atom   27 type  3   force =     0.00006130   -0.00026105    0.00045427
     atom   28 type  4   force =    -0.00003758    0.00067335    0.00056040
     atom   29 type  1   force =    -0.00028347    0.00035287   -0.00001236
     atom   30 type  3   force =    -0.00015449   -0.00030618   -0.00041052
     atom   31 type  5   force =     0.00010041   -0.00027204   -0.00010334
     atom   32 type  5   force =    -0.00036266   -0.00020204   -0.00020474
     atom   33 type  5   force =     0.00083555   -0.00003659   -0.00015758
     atom   34 type  5   force =    -0.00029642    0.00048000   -0.00051107
     atom   35 type  3   force =     0.00065743   -0.00072108   -0.00022900

     Total force =     0.003823     Total SCF correction =     0.000107

     bfgs converged in 134 scf cycles and 132 bfgs steps
     (criteria: energy <  1.0E-04 Ry, force <  1.0E-03 Ry/Bohr)

     End of BFGS Geometry Optimization

     Final energy   =    -466.9334053773 Ry
Begin final coordinates

ATOMIC_POSITIONS (crystal)
H             0.2198568600        0.4085154499        0.4027083979
H             0.1394467908        0.5326916986        0.3780564691
H             0.2403179121        0.6895818269        0.3750456305
H             0.3585717481        0.8715588687        0.3837489708
C             0.1920675781        0.4880008628        0.4381914640
C             0.3021392397        0.6523683485        0.4309348316
N             0.2896749367        0.5523505414        0.4688176518
C             0.4172729991        0.8275965784        0.4372191427
O             0.5667270544        0.4596710944        0.4765188257
H             0.5278147706        0.9676339396        0.4594403110
H             0.2938167534        0.1378887615        0.5052967960
C             0.3984672037        0.7162401166        0.4658088907
O             0.3797595826        0.3339353470        0.5051963784
C             0.5113089449        0.8806041550        0.4794746746
H             0.1449322917        0.4697403888        0.5144697543
Co            0.4011201952        0.4915316410        0.5672792838
N             0.4691345995        0.6593546723        0.5323014762
C             0.5836599036        0.8209705561        0.5481318909
C             0.5944901011        0.4237395808        0.5714593079
C             0.5592928039        0.7100219868        0.5726014671
C             0.2887224165        0.1755267705        0.5883250620
H             0.6579612791        0.8596324138        0.5830306607
C             0.3158112497        0.2978786846        0.5839571928
H             0.7667015900        0.3979005287        0.5314415854
H             0.2059301313        0.1626904682        0.6246383270
H             0.6959264058        0.2793419133        0.5855508209
H             0.6122440249        0.6601187768        0.6269355751
N             0.3466405799        0.5805545094        0.7005811974
C             0.7053898883        0.3701466629        0.5931305956
H             0.3499483728        0.1344094744        0.6426967423
O             0.5242427372        0.4320631152        0.6529356022
O             0.4146821423        0.6053768928        0.7734559959
O             0.2792677510        0.3648491162        0.6559686537
O             0.2465682442        0.6053198368        0.7019978978
H             0.7338309182        0.3887044210        0.6779124764
End final coordinates



     Writing output data file ./tmp/NO2.save/

     init_run     :      1.94s CPU      3.82s WALL (       1 calls)
     electrons    :    746.68s CPU    773.09s WALL (     134 calls)
     update_pot   :    214.81s CPU    215.33s WALL (     133 calls)
     forces       :    219.83s CPU    220.47s WALL (     134 calls)

     Called by init_run:
     wfcinit      :      0.05s CPU      1.03s WALL (       1 calls)
     potinit      :      0.75s CPU      0.88s WALL (       1 calls)
     hinit0       :      0.95s CPU      1.56s WALL (       1 calls)

     Called by electrons:
     c_bands      :    214.89s CPU    225.06s WALL (    1896 calls)
     sum_band     :    197.53s CPU    198.98s WALL (    1896 calls)
     v_of_rho     :    123.38s CPU    126.85s WALL (    2025 calls)
     newd         :    110.55s CPU    112.12s WALL (    2025 calls)
     mix_rho      :     35.24s CPU     35.67s WALL (    1896 calls)

     Called by c_bands:
     init_us_2    :      2.47s CPU      2.65s WALL (    7854 calls)
     regterg      :    206.92s CPU    214.18s WALL (    3792 calls)

     Called by sum_band:
     sum_band:bec :      0.13s CPU      0.14s WALL (    3792 calls)
     addusdens    :    154.57s CPU    154.74s WALL (    1896 calls)

     Called by *egterg:
     h_psi        :    120.36s CPU    122.26s WALL (   11289 calls)
     s_psi        :      3.46s CPU      3.48s WALL (   11289 calls)
     g_psi        :      0.41s CPU      0.41s WALL (    7495 calls)
     rdiaghg      :     42.03s CPU     43.04s WALL (   11011 calls)

     Called by h_psi:
     h_psi:calbec :      8.87s CPU      9.08s WALL (   11289 calls)
     vloc_psi     :    107.44s CPU    109.09s WALL (   11289 calls)
     add_vuspsi   :      3.56s CPU      3.60s WALL (   11289 calls)

     General routines
     calbec       :     12.83s CPU     13.16s WALL (   16153 calls)
     fft          :     84.25s CPU     89.12s WALL (   43752 calls)
     ffts         :     25.58s CPU     25.83s WALL (   44552 calls)
     fftw         :    119.26s CPU    121.19s WALL (  745318 calls)
     interpolate  :      8.86s CPU      9.01s WALL (    4050 calls)

     Parallel routines
     fft_scatt_xy :     10.94s CPU     11.07s WALL (  833622 calls)
     fft_scatt_yz :    157.47s CPU    163.34s WALL (  833622 calls)

     PWSCF        :  20m 6.88s CPU  20m43.25s WALL


   This run was terminated on:  19:39:23   7Jul2021            

=------------------------------------------------------------------------------=
   JOB DONE.
=------------------------------------------------------------------------------=
